# vtk DataFile Version 2.0
./output/Fotti_TransmissionLine/Fotti_TransmissionLine_0000.vtk
ASCII
DATASET UNSTRUCTURED_GRID

POINTS 27040 float
      -3.535534e-02      -3.535534e-02       3.000000e+00 
      -3.535534e-02       3.535534e-02       3.000000e+00 
       3.535534e-02       3.535534e-02       3.000000e+00 
       3.535534e-02      -3.535534e-02       3.000000e+00 
      -3.535534e-02      -3.535534e-02       0.000000e+00 
      -3.535534e-02       3.535534e-02       0.000000e+00 
       3.535534e-02       3.535534e-02       0.000000e+00 
       3.535534e-02      -3.535534e-02       0.000000e+00 
      -5.000000e-02       0.000000e+00       3.000000e+00 
       0.000000e+00       5.000000e-02       3.000000e+00 
       5.000000e-02       0.000000e+00       3.000000e+00 
       0.000000e+00      -5.000000e-02       3.000000e+00 
      -5.000000e-02       0.000000e+00       0.000000e+00 
       0.000000e+00       5.000000e-02       0.000000e+00 
       5.000000e-02       0.000000e+00       0.000000e+00 
       0.000000e+00      -5.000000e-02       0.000000e+00 
      -3.535534e-02      -3.535534e-02       1.500000e+00 
      -3.535534e-02       3.535534e-02       1.500000e+00 
       3.535534e-02       3.535534e-02       1.500000e+00 
       3.535534e-02      -3.535534e-02       1.500000e+00 
       1.065894e-02      -2.345397e-04      -9.150651e-03 
      -9.153621e-03      -2.345397e-04      -1.065639e-02 
      -1.065894e-02       2.345397e-04       9.150651e-03 
       9.153621e-03       2.345397e-04       1.065639e-02 
       1.023699e-02       1.983962e-01      -1.431090e-02 
      -9.623222e-03       1.983962e-01      -1.492484e-02 
      -1.023699e-02       1.988652e-01       4.929833e-03 
       9.623222e-03       1.988652e-01       5.543775e-03 
       1.064424e-03      -3.316892e-04      -1.400569e-02 
      -1.400960e-02       0.000000e+00      -1.064720e-03 
      -1.064424e-03       3.316892e-04       1.400569e-02 
       1.400960e-02       0.000000e+00       1.064720e-03 
       4.340011e-04       1.982990e-01      -1.872991e-02 
      -1.404329e-02       1.986307e-01      -5.124657e-03 
      -4.340011e-04       1.989624e-01       9.348843e-03 
       1.404329e-02       1.986307e-01      -4.256413e-03 
       1.045061e-02       9.908081e-02      -1.173315e-02 
      -9.390793e-03       9.908081e-02      -1.279326e-02 
      -1.045061e-02       9.954989e-02       7.042613e-03 
       9.390793e-03       9.954989e-02       8.102722e-03 
       1.023647e-02       1.980074e-01      -1.429411e-02 
      -9.623741e-03       1.980074e-01      -1.490805e-02 
      -1.023647e-02       1.992540e-01       4.913038e-03 
       9.623741e-03       1.992540e-01       5.526979e-03 
       9.906955e-03       3.960484e-01      -2.708335e-02 
      -9.962667e-03       3.960484e-01      -2.702753e-02 
      -9.906955e-03       3.972950e-01      -7.197056e-03 
       9.962667e-03       3.972950e-01      -7.252877e-03 
       4.332668e-04       1.977492e-01      -1.870616e-02 
      -1.404329e-02       1.986307e-01      -5.124657e-03 
      -4.332668e-04       1.995122e-01       9.325090e-03 
       1.404329e-02       1.986307e-01      -4.256413e-03 
      -3.939411e-05       3.957902e-01      -3.116247e-02 
      -1.404994e-02       3.966717e-01      -1.710073e-02 
       3.939411e-05       3.975532e-01      -3.117940e-03 
       1.404994e-02       3.966717e-01      -1.717968e-02 
       1.007314e-02       2.970279e-01      -2.069012e-02 
      -9.794595e-03       2.970279e-01      -2.096922e-02 
      -1.007314e-02       2.982745e-01      -1.140620e-03 
       9.794595e-03       2.982745e-01      -8.615209e-04 
       9.907015e-03       3.957709e-01      -2.706201e-02 
      -9.962607e-03       3.957709e-01      -2.700619e-02 
      -9.907015e-03       3.975725e-01      -7.218403e-03 
       9.962607e-03       3.975725e-01      -7.274225e-03 
       9.681538e-03       5.933907e-01      -4.527405e-02 
      -1.018181e-02       5.933907e-01      -4.477171e-02 
      -9.681538e-03       5.951923e-01      -2.499018e-02 
       1.018181e-02       5.951923e-01      -2.549252e-02 
      -3.930930e-05       3.953978e-01      -3.113228e-02 
      -1.404994e-02       3.966717e-01      -1.710073e-02 
       3.930930e-05       3.979456e-01      -3.148130e-03 
       1.404994e-02       3.966717e-01      -1.717968e-02 
      -3.537465e-04       5.930176e-01      -4.911977e-02 
      -1.404551e-02       5.942915e-01      -3.477690e-02 
       3.537465e-04       5.955654e-01      -2.114446e-02 
       1.404551e-02       5.942915e-01      -3.548732e-02 
       9.794895e-03       4.945808e-01      -3.616866e-02 
      -1.007285e-02       4.945808e-01      -3.588956e-02 
      -9.794895e-03       4.963824e-01      -1.610366e-02 
       1.007285e-02       4.963824e-01      -1.638276e-02 
       9.681956e-03       5.932247e-01      -4.525753e-02 
      -1.018139e-02       5.932247e-01      -4.475519e-02 
      -9.681956e-03       5.953583e-01      -2.500670e-02 
       1.018139e-02       5.953583e-01      -2.550904e-02 
       9.567562e-03       7.905917e-01      -6.668294e-02 
      -1.028889e-02       7.905917e-01      -6.595742e-02 
      -9.567562e-03       7.927254e-01      -4.621579e-02 
       1.028889e-02       7.927254e-01      -4.694131e-02 
      -3.531556e-04       5.927828e-01      -4.909641e-02 
      -1.404551e-02       5.942915e-01      -3.477690e-02 
       3.531556e-04       5.958002e-01      -2.116782e-02 
       1.404551e-02       5.942915e-01      -3.548732e-02 
      -5.100546e-04       7.901498e-01      -7.040881e-02 
      -1.404063e-02       7.916586e-01      -5.593635e-02 
       5.100546e-04       7.931673e-01      -4.248992e-02 
       1.404063e-02       7.916586e-01      -5.696239e-02 
       9.624911e-03       6.919082e-01      -5.597040e-02 
      -1.023530e-02       6.919082e-01      -5.535646e-02 
      -9.624911e-03       6.940419e-01      -3.561108e-02 
       1.023530e-02       6.940419e-01      -3.622502e-02 
       9.567786e-03       7.905365e-01      -6.667682e-02 
      -1.028866e-02       7.905365e-01      -6.595130e-02 
      -9.567786e-03       7.927807e-01      -4.622191e-02 
       1.028866e-02       7.927807e-01      -4.694743e-02 
       9.567786e-03       9.878193e-01      -8.910253e-02 
      -1.028866e-02       9.878193e-01      -8.837700e-02 
      -9.567786e-03       9.900635e-01      -6.864761e-02 
       1.028866e-02       9.900635e-01      -6.937313e-02 
      -5.097383e-04       7.900717e-01      -7.040015e-02 
      -1.404063e-02       7.916586e-01      -5.593635e-02 
       5.097383e-04       7.932455e-01      -4.249858e-02 
       1.404063e-02       7.916586e-01      -5.696239e-02 
      -5.097383e-04       9.873545e-01      -9.282586e-02 
      -1.404063e-02       9.889414e-01      -7.836205e-02 
       5.097383e-04       9.905283e-01      -6.492428e-02 
       1.404063e-02       9.889414e-01      -7.938809e-02 
       9.567786e-03       8.891779e-01      -7.788967e-02 
      -1.028866e-02       8.891779e-01      -7.716415e-02 
      -9.567786e-03       8.914221e-01      -5.743476e-02 
       1.028866e-02       8.914221e-01      -5.816028e-02 
       9.567562e-03       9.878746e-01      -8.910865e-02 
      -1.028889e-02       9.878746e-01      -8.838312e-02 
      -9.567562e-03       9.900083e-01      -6.864149e-02 
       1.028889e-02       9.900083e-01      -6.936701e-02 
       9.681956e-03       1.185242e+00      -1.103177e-01 
      -1.018139e-02       1.185242e+00      -1.098154e-01 
      -9.681956e-03       1.187375e+00      -9.006690e-02 
       1.018139e-02       1.187375e+00      -9.056925e-02 
      -5.100546e-04       9.874327e-01      -9.283451e-02 
      -1.404063e-02       9.889414e-01      -7.836205e-02 
       5.100546e-04       9.904502e-01      -6.491563e-02 
       1.404063e-02       9.889414e-01      -7.938809e-02 
      -3.531556e-04       1.184800e+00      -1.141566e-01 
      -1.404551e-02       1.186308e+00      -9.983711e-02 
       3.531556e-04       1.187817e+00      -8.622803e-02 
       1.404551e-02       1.186308e+00      -1.005475e-01 
       9.624911e-03       1.086558e+00      -9.971335e-02 
      -1.023530e-02       1.086558e+00      -9.909941e-02 
      -9.624911e-03       1.088692e+00      -7.935404e-02 
       1.023530e-02       1.088692e+00      -7.996798e-02 
       9.681538e-03       1.185408e+00      -1.103343e-01 
      -1.018181e-02       1.185408e+00      -1.098319e-01 
      -9.681538e-03       1.187209e+00      -9.005038e-02 
       1.018181e-02       1.187209e+00      -9.055272e-02 
       9.907015e-03       1.383028e+00      -1.281060e-01 
      -9.962607e-03       1.383028e+00      -1.280502e-01 
      -9.907015e-03       1.384829e+00      -1.082624e-01 
       9.962607e-03       1.384829e+00      -1.083183e-01 
      -3.537465e-04       1.185035e+00      -1.141800e-01 
      -1.404551e-02       1.186308e+00      -9.983711e-02 
       3.537465e-04       1.187582e+00      -8.620466e-02 
       1.404551e-02       1.186308e+00      -1.005475e-01 
      -3.930930e-05       1.382654e+00      -1.321763e-01 
      -1.404994e-02       1.383928e+00      -1.181448e-01 
       3.930930e-05       1.385202e+00      -1.041922e-01 
       1.404994e-02       1.383928e+00      -1.182237e-01 
       9.794895e-03       1.284218e+00      -1.192208e-01 
      -1.007285e-02       1.284218e+00      -1.189417e-01 
      -9.794895e-03       1.286019e+00      -9.915577e-02 
       1.007285e-02       1.286019e+00      -9.943487e-02 
       9.906955e-03       1.383305e+00      -1.281274e-01 
      -9.962667e-03       1.383305e+00      -1.280716e-01 
      -9.906955e-03       1.384552e+00      -1.082411e-01 
       9.962667e-03       1.384552e+00      -1.082969e-01 
       1.023647e-02       1.581346e+00      -1.402375e-01 
      -9.623741e-03       1.581346e+00      -1.408514e-01 
      -1.023647e-02       1.582593e+00      -1.210303e-01 
[...]
POINT_DATA     27040 
VECTORS Displacements float
       0.00000000e+00       0.00000000e+00       0.00000000e+00 
       0.00000000e+00       0.00000000e+00       0.00000000e+00 
       0.00000000e+00       0.00000000e+00       0.00000000e+00 
       0.00000000e+00       0.00000000e+00       0.00000000e+00 
       0.00000000e+00       0.00000000e+00       0.00000000e+00 
       0.00000000e+00       0.00000000e+00       0.00000000e+00 
       0.00000000e+00       0.00000000e+00       0.00000000e+00 
       0.00000000e+00       0.00000000e+00       0.00000000e+00 
       0.00000000e+00       0.00000000e+00       0.00000000e+00 
       0.00000000e+00       0.00000000e+00       0.00000000e+00 
       0.00000000e+00       0.00000000e+00       0.00000000e+00 
       0.00000000e+00       0.00000000e+00       0.00000000e+00 
       0.00000000e+00       0.00000000e+00       0.00000000e+00 
       0.00000000e+00       0.00000000e+00       0.00000000e+00 
       0.00000000e+00       0.00000000e+00       0.00000000e+00 
       0.00000000e+00       0.00000000e+00       0.00000000e+00 
       0.00000000e+00       0.00000000e+00       0.00000000e+00 
       0.00000000e+00       0.00000000e+00       0.00000000e+00 
       0.00000000e+00       0.00000000e+00       0.00000000e+00 
       0.00000000e+00       0.00000000e+00       0.00000000e+00 
       0.00000000e+00       0.00000000e+00       0.00000000e+00 
       0.00000000e+00       0.00000000e+00       0.00000000e+00 
       0.00000000e+00       0.00000000e+00       0.00000000e+00 
       0.00000000e+00       0.00000000e+00       0.00000000e+00 
       0.00000000e+00       7.86252253e-04      -4.69053497e-03 
       0.00000000e+00       7.86252253e-04      -4.69053497e-03 
       0.00000000e+00       7.86252253e-04      -4.69053497e-03 
       0.00000000e+00       7.86252253e-04      -4.69053497e-03 
       0.00000000e+00       0.00000000e+00       0.00000000e+00 
       0.00000000e+00       0.00000000e+00       0.00000000e+00 
       0.00000000e+00       0.00000000e+00       0.00000000e+00 
       0.00000000e+00       0.00000000e+00       0.00000000e+00 
       0.00000000e+00       7.86252253e-04      -4.69053497e-03 
       0.00000000e+00       7.86252253e-04      -4.69053497e-03 
       0.00000000e+00       7.86252253e-04      -4.69053497e-03 
       0.00000000e+00       7.86252253e-04      -4.69053497e-03 
       0.00000000e+00       3.93126127e-04      -2.34526748e-03 
       0.00000000e+00       3.93126127e-04      -2.34526748e-03 
       0.00000000e+00       3.93126127e-04      -2.34526748e-03 
       0.00000000e+00       3.93126127e-04      -2.34526748e-03 
       0.00000000e+00       7.86252253e-04      -4.69053497e-03 
       0.00000000e+00       7.86252253e-04      -4.69053497e-03 
       0.00000000e+00       7.86252253e-04      -4.69053497e-03 
       0.00000000e+00       7.86252253e-04      -4.69053497e-03 
       0.00000000e+00       9.82815317e-04      -1.71402050e-02 
       0.00000000e+00       9.82815317e-04      -1.71402050e-02 
       0.00000000e+00       9.82815317e-04      -1.71402050e-02 
       0.00000000e+00       9.82815317e-04      -1.71402050e-02 
       0.00000000e+00       7.86252253e-04      -4.69053497e-03 
       0.00000000e+00       7.86252253e-04      -4.69053497e-03 
       0.00000000e+00       7.86252253e-04      -4.69053497e-03 
       0.00000000e+00       7.86252253e-04      -4.69053497e-03 
       0.00000000e+00       9.82815317e-04      -1.71402050e-02 
       0.00000000e+00       9.82815317e-04      -1.71402050e-02 
       0.00000000e+00       9.82815317e-04      -1.71402050e-02 
       0.00000000e+00       9.82815317e-04      -1.71402050e-02 
       0.00000000e+00       8.84533785e-04      -1.09153700e-02 
       0.00000000e+00       8.84533785e-04      -1.09153700e-02 
       0.00000000e+00       8.84533785e-04      -1.09153700e-02 
       0.00000000e+00       8.84533785e-04      -1.09153700e-02 
       0.00000000e+00       9.82815317e-04      -1.71402050e-02 
       0.00000000e+00       9.82815317e-04      -1.71402050e-02 
       0.00000000e+00       9.82815317e-04      -1.71402050e-02 
       0.00000000e+00       9.82815317e-04      -1.71402050e-02 
       0.00000000e+00       7.58171816e-04      -3.51321144e-02 
       0.00000000e+00       7.58171816e-04      -3.51321144e-02 
       0.00000000e+00       7.58171816e-04      -3.51321144e-02 
       0.00000000e+00       7.58171816e-04      -3.51321144e-02 
       0.00000000e+00       9.82815317e-04      -1.71402050e-02 
       0.00000000e+00       9.82815317e-04      -1.71402050e-02 
       0.00000000e+00       9.82815317e-04      -1.71402050e-02 
       0.00000000e+00       9.82815317e-04      -1.71402050e-02 
       0.00000000e+00       7.58171816e-04      -3.51321144e-02 
       0.00000000e+00       7.58171816e-04      -3.51321144e-02 
       0.00000000e+00       7.58171816e-04      -3.51321144e-02 
       0.00000000e+00       7.58171816e-04      -3.51321144e-02 
       0.00000000e+00       8.70493566e-04      -2.61361597e-02 
       0.00000000e+00       8.70493566e-04      -2.61361597e-02 
       0.00000000e+00       8.70493566e-04      -2.61361597e-02 
       0.00000000e+00       8.70493566e-04      -2.61361597e-02 
       0.00000000e+00       7.58171816e-04      -3.51321144e-02 
       0.00000000e+00       7.58171816e-04      -3.51321144e-02 
       0.00000000e+00       7.58171816e-04      -3.51321144e-02 
       0.00000000e+00       7.58171816e-04      -3.51321144e-02 
       0.00000000e+00       2.80804376e-04      -5.64493673e-02 
       0.00000000e+00       2.80804376e-04      -5.64493673e-02 
       0.00000000e+00       2.80804376e-04      -5.64493673e-02 
       0.00000000e+00       2.80804376e-04      -5.64493673e-02 
       0.00000000e+00       7.58171816e-04      -3.51321144e-02 
       0.00000000e+00       7.58171816e-04      -3.51321144e-02 
       0.00000000e+00       7.58171816e-04      -3.51321144e-02 
       0.00000000e+00       7.58171816e-04      -3.51321144e-02 
       0.00000000e+00       2.80804376e-04      -5.64493673e-02 
       0.00000000e+00       2.80804376e-04      -5.64493673e-02 
       0.00000000e+00       2.80804376e-04      -5.64493673e-02 
       0.00000000e+00       2.80804376e-04      -5.64493673e-02 
       0.00000000e+00       5.19488096e-04      -4.57907408e-02 
       0.00000000e+00       5.19488096e-04      -4.57907408e-02 
       0.00000000e+00       5.19488096e-04      -4.57907408e-02 
       0.00000000e+00       5.19488096e-04      -4.57907408e-02 
       0.00000000e+00       2.80804376e-04      -5.64493673e-02 
       0.00000000e+00       2.80804376e-04      -5.64493673e-02 
       0.00000000e+00       2.80804376e-04      -5.64493673e-02 
       0.00000000e+00       2.80804376e-04      -5.64493673e-02 
       0.00000000e+00      -2.80804376e-04      -7.88750681e-02 
       0.00000000e+00      -2.80804376e-04      -7.88750681e-02 
       0.00000000e+00      -2.80804376e-04      -7.88750681e-02 
       0.00000000e+00      -2.80804376e-04      -7.88750681e-02 
       0.00000000e+00       2.80804376e-04      -5.64493673e-02 
       0.00000000e+00       2.80804376e-04      -5.64493673e-02 
       0.00000000e+00       2.80804376e-04      -5.64493673e-02 
       0.00000000e+00       2.80804376e-04      -5.64493673e-02 
       0.00000000e+00      -2.80804376e-04      -7.88750681e-02 
       0.00000000e+00      -2.80804376e-04      -7.88750681e-02 
       0.00000000e+00      -2.80804376e-04      -7.88750681e-02 
       0.00000000e+00      -2.80804376e-04      -7.88750681e-02 
       0.00000000e+00      -5.55111512e-17      -6.76622177e-02 
       0.00000000e+00      -5.55111512e-17      -6.76622177e-02 
       0.00000000e+00      -5.55111512e-17      -6.76622177e-02 
       0.00000000e+00      -5.55111512e-17      -6.76622177e-02 
       0.00000000e+00      -2.80804376e-04      -7.88750681e-02 
       0.00000000e+00      -2.80804376e-04      -7.88750681e-02 
       0.00000000e+00      -2.80804376e-04      -7.88750681e-02 
       0.00000000e+00      -2.80804376e-04      -7.88750681e-02 
       0.00000000e+00      -7.58171816e-04      -1.00192321e-01 
       0.00000000e+00      -7.58171816e-04      -1.00192321e-01 
       0.00000000e+00      -7.58171816e-04      -1.00192321e-01 
       0.00000000e+00      -7.58171816e-04      -1.00192321e-01 
       0.00000000e+00      -2.80804376e-04      -7.88750681e-02 
       0.00000000e+00      -2.80804376e-04      -7.88750681e-02 
       0.00000000e+00      -2.80804376e-04      -7.88750681e-02 
       0.00000000e+00      -2.80804376e-04      -7.88750681e-02 
       0.00000000e+00      -7.58171816e-04      -1.00192321e-01 
       0.00000000e+00      -7.58171816e-04      -1.00192321e-01 
       0.00000000e+00      -7.58171816e-04      -1.00192321e-01 
       0.00000000e+00      -7.58171816e-04      -1.00192321e-01 
       0.00000000e+00      -5.19488096e-04      -8.95336946e-02 
       0.00000000e+00      -5.19488096e-04      -8.95336946e-02 
       0.00000000e+00      -5.19488096e-04      -8.95336946e-02 
       0.00000000e+00      -5.19488096e-04      -8.95336946e-02 
       0.00000000e+00      -7.58171816e-04      -1.00192321e-01 
       0.00000000e+00      -7.58171816e-04      -1.00192321e-01 
       0.00000000e+00      -7.58171816e-04      -1.00192321e-01 
       0.00000000e+00      -7.58171816e-04      -1.00192321e-01 
       0.00000000e+00      -9.82815317e-04      -1.18184230e-01 
       0.00000000e+00      -9.82815317e-04      -1.18184230e-01 
       0.00000000e+00      -9.82815317e-04      -1.18184230e-01 
       0.00000000e+00      -9.82815317e-04      -1.18184230e-01 
       0.00000000e+00      -7.58171816e-04      -1.00192321e-01 
       0.00000000e+00      -7.58171816e-04      -1.00192321e-01 
       0.00000000e+00      -7.58171816e-04      -1.00192321e-01 
       0.00000000e+00      -7.58171816e-04      -1.00192321e-01 
       0.00000000e+00      -9.82815317e-04      -1.18184230e-01 
       0.00000000e+00      -9.82815317e-04      -1.18184230e-01 
       0.00000000e+00      -9.82815317e-04      -1.18184230e-01 
       0.00000000e+00      -9.82815317e-04      -1.18184230e-01 
       0.00000000e+00      -8.70493566e-04      -1.09188276e-01 
       0.00000000e+00      -8.70493566e-04      -1.09188276e-01 
       0.00000000e+00      -8.70493566e-04      -1.09188276e-01 
       0.00000000e+00      -8.70493566e-04      -1.09188276e-01 
       0.00000000e+00      -9.82815317e-04      -1.18184230e-01 
       0.00000000e+00      -9.82815317e-04      -1.18184230e-01 
       0.00000000e+00      -9.82815317e-04      -1.18184230e-01 
       0.00000000e+00      -9.82815317e-04      -1.18184230e-01 
       0.00000000e+00      -7.86252253e-04      -1.30633900e-01 
       0.00000000e+00      -7.86252253e-04      -1.30633900e-01 
       0.00000000e+00      -7.86252253e-04      -1.30633900e-01 
       0.00000000e+00      -7.86252253e-04      -1.30633900e-01 
       0.00000000e+00      -9.82815317e-04      -1.18184230e-01 
       0.00000000e+00      -9.82815317e-04      -1.18184230e-01 
       0.00000000e+00      -9.82815317e-04      -1.18184230e-01 
       0.00000000e+00      -9.82815317e-04      -1.18184230e-01 
       0.00000000e+00      -7.86252253e-04      -1.30633900e-01 
       0.00000000e+00      -7.86252253e-04      -1.30633900e-01 
       0.00000000e+00      -7.86252253e-04      -1.30633900e-01 
       0.00000000e+00      -7.86252253e-04      -1.30633900e-01 
       0.00000000e+00      -8.84533785e-04      -1.24409065e-01 
       0.00000000e+00      -8.84533785e-04      -1.24409065e-01 
       0.00000000e+00      -8.84533785e-04      -1.24409065e-01 
       0.00000000e+00      -8.84533785e-04      -1.24409065e-01 
       0.00000000e+00      -7.86252253e-04      -1.30633900e-01 
       0.00000000e+00      -7.86252253e-04      -1.30633900e-01 
       0.00000000e+00      -7.86252253e-04      -1.30633900e-01 
       0.00000000e+00      -7.86252253e-04      -1.30633900e-01 
       0.00000000e+00       0.00000000e+00      -1.35324435e-01 
       0.00000000e+00       0.00000000e+00      -1.35324435e-01 
       0.00000000e+00       0.00000000e+00      -1.35324435e-01 
       0.00000000e+00       0.00000000e+00      -1.35324435e-01 
       0.00000000e+00      -7.86252253e-04      -1.30633900e-01 
       0.00000000e+00      -7.86252253e-04      -1.30633900e-01 
       0.00000000e+00      -7.86252253e-04      -1.30633900e-01 
       0.00000000e+00      -7.86252253e-04      -1.30633900e-01 
       0.00000000e+00       0.00000000e+00      -1.35324435e-01 
       0.00000000e+00       0.00000000e+00      -1.35324435e-01 
       0.00000000e+00       0.00000000e+00      -1.35324435e-01 
       0.00000000e+00       0.00000000e+00      -1.35324435e-01 
       0.00000000e+00      -3.93126127e-04      -1.32979168e-01 
       0.00000000e+00      -3.93126127e-04      -1.32979168e-01 
       0.00000000e+00      -3.93126127e-04      -1.32979168e-01 
       0.00000000e+00      -3.93126127e-04      -1.32979168e-01 
       0.00000000e+00       0.00000000e+00      -1.35324435e-01 
       0.00000000e+00       0.00000000e+00      -1.35324435e-01 
       0.00000000e+00       0.00000000e+00      -1.35324435e-01 
       0.00000000e+00       0.00000000e+00      -1.35324435e-01 
       0.00000000e+00       7.54727758e-04      -1.39917578e-01 
       0.00000000e+00       7.54727758e-04      -1.39917578e-01 
       0.00000000e+00       7.54727758e-04      -1.39917578e-01 
       0.00000000e+00       7.54727758e-04      -1.39917578e-01 
       0.00000000e+00       0.00000000e+00      -1.35324435e-01 
       0.00000000e+00       0.00000000e+00      -1.35324435e-01 
       0.00000000e+00       0.00000000e+00      -1.35324435e-01 
       0.00000000e+00       0.00000000e+00      -1.35324435e-01 
       0.00000000e+00       7.54727758e-04      -1.39917578e-01 
       0.00000000e+00       7.54727758e-04      -1.39917578e-01 
       0.00000000e+00       7.54727758e-04      -1.39917578e-01 
       0.00000000e+00       7.54727758e-04      -1.39917578e-01 
       0.00000000e+00       3.77363879e-04      -1.37621007e-01 
       0.00000000e+00       3.77363879e-04      -1.37621007e-01 
       0.00000000e+00       3.77363879e-04      -1.37621007e-01 
       0.00000000e+00       3.77363879e-04      -1.37621007e-01 
       0.00000000e+00       7.54727758e-04      -1.39917578e-01 
       0.00000000e+00       7.54727758e-04      -1.39917578e-01 
       0.00000000e+00       7.54727758e-04      -1.39917578e-01 
       0.00000000e+00       7.54727758e-04      -1.39917578e-01 
       0.00000000e+00       9.43409697e-04      -1.52113448e-01 
       0.00000000e+00       9.43409697e-04      -1.52113448e-01 
       0.00000000e+00       9.43409697e-04      -1.52113448e-01 
       0.00000000e+00       9.43409697e-04      -1.52113448e-01 
       0.00000000e+00       7.54727758e-04      -1.39917578e-01 
       0.00000000e+00       7.54727758e-04      -1.39917578e-01 
       0.00000000e+00       7.54727758e-04      -1.39917578e-01 
       0.00000000e+00       7.54727758e-04      -1.39917578e-01 
       0.00000000e+00       9.43409697e-04      -1.52113448e-01 
       0.00000000e+00       9.43409697e-04      -1.52113448e-01 
       0.00000000e+00       9.43409697e-04      -1.52113448e-01 
       0.00000000e+00       9.43409697e-04      -1.52113448e-01 
       0.00000000e+00       8.49068727e-04      -1.46015513e-01 
       0.00000000e+00       8.49068727e-04      -1.46015513e-01 
       0.00000000e+00       8.49068727e-04      -1.46015513e-01 
       0.00000000e+00       8.49068727e-04      -1.46015513e-01 
       0.00000000e+00       9.43409697e-04      -1.52113448e-01 
       0.00000000e+00       9.43409697e-04      -1.52113448e-01 
       0.00000000e+00       9.43409697e-04      -1.52113448e-01 
       0.00000000e+00       9.43409697e-04      -1.52113448e-01 
       0.00000000e+00       7.27773195e-04      -1.69739837e-01 
       0.00000000e+00       7.27773195e-04      -1.69739837e-01 
       0.00000000e+00       7.27773195e-04      -1.69739837e-01 
       0.00000000e+00       7.27773195e-04      -1.69739837e-01 
       0.00000000e+00       9.43409697e-04      -1.52113448e-01 
       0.00000000e+00       9.43409697e-04      -1.52113448e-01 
       0.00000000e+00       9.43409697e-04      -1.52113448e-01 
       0.00000000e+00       9.43409697e-04      -1.52113448e-01 
       0.00000000e+00       7.27773195e-04      -1.69739837e-01 
       0.00000000e+00       7.27773195e-04      -1.69739837e-01 
       0.00000000e+00       7.27773195e-04      -1.69739837e-01 
       0.00000000e+00       7.27773195e-04      -1.69739837e-01 
       0.00000000e+00       8.35591446e-04      -1.60926642e-01 
       0.00000000e+00       8.35591446e-04      -1.60926642e-01 
       0.00000000e+00       8.35591446e-04      -1.60926642e-01 
       0.00000000e+00       8.35591446e-04      -1.60926642e-01 
       0.00000000e+00       7.27773195e-04      -1.69739837e-01 
       0.00000000e+00       7.27773195e-04      -1.69739837e-01 
       0.00000000e+00       7.27773195e-04      -1.69739837e-01 
       0.00000000e+00       7.27773195e-04      -1.69739837e-01 
       0.00000000e+00       2.69545628e-04      -1.90624537e-01 
       0.00000000e+00       2.69545628e-04      -1.90624537e-01 
       0.00000000e+00       2.69545628e-04      -1.90624537e-01 
       0.00000000e+00       2.69545628e-04      -1.90624537e-01 
       0.00000000e+00       7.27773195e-04      -1.69739837e-01 
       0.00000000e+00       7.27773195e-04      -1.69739837e-01 
       0.00000000e+00       7.27773195e-04      -1.69739837e-01 
       0.00000000e+00       7.27773195e-04      -1.69739837e-01 
       0.00000000e+00       2.69545628e-04      -1.90624537e-01 
       0.00000000e+00       2.69545628e-04      -1.90624537e-01 
       0.00000000e+00       2.69545628e-04      -1.90624537e-01 
       0.00000000e+00       2.69545628e-04      -1.90624537e-01 
       0.00000000e+00       4.98659411e-04      -1.80182187e-01 
       0.00000000e+00       4.98659411e-04      -1.80182187e-01 
       0.00000000e+00       4.98659411e-04      -1.80182187e-01 
       0.00000000e+00       4.98659411e-04      -1.80182187e-01 
       0.00000000e+00       2.69545628e-04      -1.90624537e-01 
       0.00000000e+00       2.69545628e-04      -1.90624537e-01 
       0.00000000e+00       2.69545628e-04      -1.90624537e-01 
       0.00000000e+00       2.69545628e-04      -1.90624537e-01 
       0.00000000e+00      -2.69545628e-04      -2.12595342e-01 
       0.00000000e+00      -2.69545628e-04      -2.12595342e-01 
       0.00000000e+00      -2.69545628e-04      -2.12595342e-01 
       0.00000000e+00      -2.69545628e-04      -2.12595342e-01 
       0.00000000e+00       2.69545628e-04      -1.90624537e-01 
       0.00000000e+00       2.69545628e-04      -1.90624537e-01 
       0.00000000e+00       2.69545628e-04      -1.90624537e-01 
       0.00000000e+00       2.69545628e-04      -1.90624537e-01 
       0.00000000e+00      -2.69545628e-04      -2.12595342e-01 
       0.00000000e+00      -2.69545628e-04      -2.12595342e-01 
       0.00000000e+00      -2.69545628e-04      -2.12595342e-01 
       0.00000000e+00      -2.69545628e-04      -2.12595342e-01 
       0.00000000e+00       0.00000000e+00      -2.01609939e-01 
       0.00000000e+00       0.00000000e+00      -2.01609939e-01 
       0.00000000e+00       0.00000000e+00      -2.01609939e-01 
       0.00000000e+00       0.00000000e+00      -2.01609939e-01 
       0.00000000e+00      -2.69545628e-04      -2.12595342e-01 
       0.00000000e+00      -2.69545628e-04      -2.12595342e-01 
       0.00000000e+00      -2.69545628e-04      -2.12595342e-01 
       0.00000000e+00      -2.69545628e-04      -2.12595342e-01 
       0.00000000e+00      -7.27773195e-04      -2.33480042e-01 
       0.00000000e+00      -7.27773195e-04      -2.33480042e-01 