# vtk DataFile Version 2.0
./output/Static_Tower/Static_Tower_0001.vtk
ASCII
DATASET UNSTRUCTURED_GRID

POINTS 13260 float
      -4.335799e+00       4.312526e+00      -9.533746e-03 
      -4.309007e+00       4.315348e+00      -9.533746e-03 
      -4.311001e+00       4.334274e+00       9.533746e-03 
      -4.337793e+00       4.331452e+00       9.533746e-03 
      -3.880293e+00      -1.087449e-02       4.329465e+00 
      -3.853502e+00      -8.051800e-03       4.329465e+00 
      -3.855496e+00       1.087440e-02       4.348533e+00 
      -3.882287e+00       8.051710e-03       4.348533e+00 
      -4.321990e+00       4.310017e+00      -1.348275e-02 
      -4.304456e+00       4.325396e+00       0.000000e+00 
      -4.324810e+00       4.336783e+00       1.348275e-02 
      -4.342344e+00       4.321404e+00       0.000000e+00 
      -3.866485e+00      -1.338289e-02       4.325516e+00 
      -3.848950e+00       1.995899e-03       4.338999e+00 
      -3.869305e+00       1.338280e-02       4.352482e+00 
      -3.886839e+00      -1.995990e-03       4.338999e+00 
      -4.108046e+00       2.150826e+00       2.159966e+00 
      -4.081255e+00       2.153648e+00       2.159966e+00 
      -4.083249e+00       2.172574e+00       2.179033e+00 
      -4.110040e+00       2.169752e+00       2.179033e+00 
       4.309007e+00       4.315348e+00      -9.533746e-03 
       4.335799e+00       4.312526e+00      -9.533746e-03 
       4.337793e+00       4.331452e+00       9.533746e-03 
       4.311001e+00       4.334274e+00       9.533746e-03 
       3.853502e+00      -8.051800e-03       4.329465e+00 
       3.880293e+00      -1.087449e-02       4.329465e+00 
       3.882287e+00       8.051709e-03       4.348533e+00 
       3.855496e+00       1.087440e-02       4.348533e+00 
       4.321990e+00       4.310017e+00      -1.348275e-02 
       4.342344e+00       4.321404e+00       0.000000e+00 
       4.324810e+00       4.336783e+00       1.348275e-02 
       4.304456e+00       4.325396e+00       0.000000e+00 
       3.866484e+00      -1.338289e-02       4.325516e+00 
       3.886839e+00      -1.995990e-03       4.338999e+00 
       3.869304e+00       1.338280e-02       4.352482e+00 
       3.848950e+00       1.995900e-03       4.338999e+00 
       4.081255e+00       2.153648e+00       2.159966e+00 
       4.108046e+00       2.150826e+00       2.159966e+00 
       4.110040e+00       2.169752e+00       2.179033e+00 
       4.083249e+00       2.172574e+00       2.179033e+00 
      -4.309007e+00      -4.315348e+00      -9.533746e-03 
      -4.335799e+00      -4.312526e+00      -9.533746e-03 
      -4.337793e+00      -4.331452e+00       9.533746e-03 
      -4.311001e+00      -4.334274e+00       9.533746e-03 
      -3.853502e+00       8.051710e-03       4.329465e+00 
      -3.880293e+00       1.087440e-02       4.329465e+00 
      -3.882287e+00      -8.051800e-03       4.348533e+00 
      -3.855496e+00      -1.087449e-02       4.348533e+00 
      -4.321990e+00      -4.310017e+00      -1.348275e-02 
      -4.342344e+00      -4.321404e+00       0.000000e+00 
      -4.324810e+00      -4.336783e+00       1.348275e-02 
      -4.304456e+00      -4.325396e+00       0.000000e+00 
      -3.866485e+00       1.338280e-02       4.325516e+00 
      -3.886839e+00       1.995899e-03       4.338999e+00 
      -3.869305e+00      -1.338289e-02       4.352482e+00 
      -3.848950e+00      -1.995990e-03       4.338999e+00 
      -4.081255e+00      -2.153648e+00       2.159966e+00 
      -4.108046e+00      -2.150826e+00       2.159966e+00 
      -4.110040e+00      -2.169752e+00       2.179033e+00 
      -4.083249e+00      -2.172574e+00       2.179033e+00 
      -4.315348e+00       4.309007e+00      -9.533746e-03 
      -4.312526e+00       4.335799e+00      -9.533746e-03 
      -4.331452e+00       4.337793e+00       9.533746e-03 
      -4.334274e+00       4.311001e+00       9.533746e-03 
       8.051709e-03       3.853502e+00       4.329465e+00 
       1.087440e-02       3.880293e+00       4.329465e+00 
      -8.051800e-03       3.882287e+00       4.348533e+00 
      -1.087449e-02       3.855496e+00       4.348533e+00 
      -4.310017e+00       4.321990e+00      -1.348275e-02 
      -4.321404e+00       4.342344e+00       0.000000e+00 
      -4.336783e+00       4.324810e+00       1.348275e-02 
      -4.325396e+00       4.304456e+00       0.000000e+00 
       1.338280e-02       3.866484e+00       4.325516e+00 
       1.995900e-03       3.886839e+00       4.338999e+00 
      -1.338289e-02       3.869304e+00       4.352482e+00 
      -1.995990e-03       3.848950e+00       4.338999e+00 
      -2.153648e+00       4.081255e+00       2.159966e+00 
      -2.150826e+00       4.108046e+00       2.159966e+00 
      -2.169752e+00       4.110040e+00       2.179033e+00 
      -2.172574e+00       4.083249e+00       2.179033e+00 
      -4.312526e+00      -4.335799e+00      -9.533746e-03 
      -4.315348e+00      -4.309007e+00      -9.533746e-03 
      -4.334274e+00      -4.311001e+00       9.533746e-03 
      -4.331452e+00      -4.337793e+00       9.533746e-03 
       1.087440e-02      -3.880293e+00       4.329465e+00 
       8.051710e-03      -3.853502e+00       4.329465e+00 
      -1.087449e-02      -3.855496e+00       4.348533e+00 
      -8.051800e-03      -3.882287e+00       4.348533e+00 
      -4.310017e+00      -4.321990e+00      -1.348275e-02 
      -4.325396e+00      -4.304456e+00       0.000000e+00 
      -4.336783e+00      -4.324810e+00       1.348275e-02 
      -4.321404e+00      -4.342344e+00       0.000000e+00 
       1.338280e-02      -3.866485e+00       4.325516e+00 
      -1.995990e-03      -3.848950e+00       4.338999e+00 
      -1.338289e-02      -3.869305e+00       4.352482e+00 
       1.995899e-03      -3.886839e+00       4.338999e+00 
      -2.150826e+00      -4.108046e+00       2.159966e+00 
      -2.153648e+00      -4.081255e+00       2.159966e+00 
      -2.172574e+00      -4.083249e+00       2.179033e+00 
      -2.169752e+00      -4.110040e+00       2.179033e+00 
       4.312526e+00       4.335799e+00      -9.533746e-03 
       4.315348e+00       4.309007e+00      -9.533746e-03 
       4.334274e+00       4.311001e+00       9.533746e-03 
       4.331452e+00       4.337793e+00       9.533746e-03 
      -1.087449e-02       3.880293e+00       4.329465e+00 
      -8.051800e-03       3.853502e+00       4.329465e+00 
       1.087440e-02       3.855496e+00       4.348533e+00 
       8.051709e-03       3.882287e+00       4.348533e+00 
       4.310017e+00       4.321990e+00      -1.348275e-02 
       4.325396e+00       4.304456e+00       0.000000e+00 
       4.336783e+00       4.324810e+00       1.348275e-02 
       4.321404e+00       4.342344e+00       0.000000e+00 
      -1.338289e-02       3.866484e+00       4.325516e+00 
       1.995900e-03       3.848950e+00       4.338999e+00 
       1.338280e-02       3.869304e+00       4.352482e+00 
      -1.995990e-03       3.886839e+00       4.338999e+00 
       2.150826e+00       4.108046e+00       2.159966e+00 
       2.153648e+00       4.081255e+00       2.159966e+00 
       2.172574e+00       4.083249e+00       2.179033e+00 
       2.169752e+00       4.110040e+00       2.179033e+00 
       4.335799e+00      -4.312526e+00      -9.533746e-03 
       4.309007e+00      -4.315348e+00      -9.533746e-03 
       4.311001e+00      -4.334274e+00       9.533746e-03 
       4.337793e+00      -4.331452e+00       9.533746e-03 
       3.880293e+00       1.087440e-02       4.329465e+00 
       3.853502e+00       8.051709e-03       4.329465e+00 
       3.855496e+00      -1.087449e-02       4.348533e+00 
       3.882287e+00      -8.051800e-03       4.348533e+00 
       4.321990e+00      -4.310017e+00      -1.348275e-02 
       4.304456e+00      -4.325396e+00       0.000000e+00 
       4.324810e+00      -4.336783e+00       1.348275e-02 
       4.342344e+00      -4.321404e+00       0.000000e+00 
       3.866484e+00       1.338280e-02       4.325516e+00 
       3.848950e+00      -1.995990e-03       4.338999e+00 
       3.869304e+00      -1.338289e-02       4.352482e+00 
       3.886839e+00       1.995900e-03       4.338999e+00 
       4.108046e+00      -2.150826e+00       2.159966e+00 
       4.081255e+00      -2.153648e+00       2.159966e+00 
       4.083249e+00      -2.172574e+00       2.179033e+00 
       4.110040e+00      -2.169752e+00       2.179033e+00 
       4.315348e+00      -4.309007e+00      -9.533746e-03 
       4.312526e+00      -4.335799e+00      -9.533746e-03 
       4.331452e+00      -4.337793e+00       9.533746e-03 
       4.334274e+00      -4.311001e+00       9.533746e-03 
      -8.051800e-03      -3.853502e+00       4.329465e+00 
      -1.087449e-02      -3.880293e+00       4.329465e+00 
       8.051710e-03      -3.882287e+00       4.348533e+00 
       1.087440e-02      -3.855496e+00       4.348533e+00 
       4.310017e+00      -4.321990e+00      -1.348275e-02 
       4.321404e+00      -4.342344e+00       0.000000e+00 
       4.336783e+00      -4.324810e+00       1.348275e-02 
       4.325396e+00      -4.304456e+00       0.000000e+00 
      -1.338289e-02      -3.866485e+00       4.325516e+00 
      -1.995990e-03      -3.886839e+00       4.338999e+00 
       1.338280e-02      -3.869305e+00       4.352482e+00 
       1.995899e-03      -3.848950e+00       4.338999e+00 
       2.153648e+00      -4.081255e+00       2.159966e+00 
       2.150826e+00      -4.108046e+00       2.159966e+00 
       2.169752e+00      -4.110040e+00       2.179033e+00 
       2.172574e+00      -4.083249e+00       2.179033e+00 
      -4.290298e+00      -4.323580e+00      -3.456285e-03 
      -4.323580e+00      -4.290298e+00      -3.456285e-03 
      -4.356502e+00      -4.323220e+00       3.456285e-03 
      -4.323220e+00      -4.356502e+00       3.456285e-03 
      -3.834857e+00      -3.868140e+00       4.334668e+00 
      -3.868140e+00      -3.834857e+00       4.334668e+00 
      -3.901061e+00      -3.867779e+00       4.341581e+00 
[...]
POINT_DATA     13260 
VECTORS Displacements float
       0.00000000e+00       0.00000000e+00       0.00000000e+00 
       0.00000000e+00       0.00000000e+00       0.00000000e+00 
       0.00000000e+00       0.00000000e+00       0.00000000e+00 
       0.00000000e+00       0.00000000e+00       0.00000000e+00 
       5.42717741e-06      -4.53121592e-08      -2.00836360e-04 
       5.42717741e-06      -4.53121592e-08      -2.00836360e-04 
       5.42717741e-06      -4.53121592e-08      -2.00836360e-04 
       5.42717741e-06      -4.53121592e-08      -2.00836360e-04 
       0.00000000e+00       0.00000000e+00       0.00000000e+00 
       0.00000000e+00       0.00000000e+00       0.00000000e+00 
       0.00000000e+00       0.00000000e+00       0.00000000e+00 
       0.00000000e+00       0.00000000e+00       0.00000000e+00 
       5.42717741e-06      -4.53121592e-08      -2.00836360e-04 
       5.42717741e-06      -4.53121592e-08      -2.00836360e-04 
       5.42717741e-06      -4.53121592e-08      -2.00836360e-04 
       5.42717741e-06      -4.53121592e-08      -2.00836360e-04 
       2.71358871e-06      -2.26560796e-08      -1.00418180e-04 
       2.71358871e-06      -2.26560796e-08      -1.00418180e-04 
       2.71358871e-06      -2.26560796e-08      -1.00418180e-04 
       2.71358871e-06      -2.26560796e-08      -1.00418180e-04 
       0.00000000e+00       0.00000000e+00       0.00000000e+00 
       0.00000000e+00       0.00000000e+00       0.00000000e+00 
       0.00000000e+00       0.00000000e+00       0.00000000e+00 
       0.00000000e+00       0.00000000e+00       0.00000000e+00 
      -5.51783970e-06      -4.53119097e-08      -2.00845887e-04 
      -5.51783970e-06      -4.53119097e-08      -2.00845887e-04 
      -5.51783970e-06      -4.53119097e-08      -2.00845887e-04 
      -5.51783970e-06      -4.53119097e-08      -2.00845887e-04 
       0.00000000e+00       0.00000000e+00       0.00000000e+00 
       0.00000000e+00       0.00000000e+00       0.00000000e+00 
       0.00000000e+00       0.00000000e+00       0.00000000e+00 
       0.00000000e+00       0.00000000e+00       0.00000000e+00 
      -5.51783970e-06      -4.53119097e-08      -2.00845887e-04 
      -5.51783970e-06      -4.53119097e-08      -2.00845887e-04 
      -5.51783970e-06      -4.53119097e-08      -2.00845887e-04 
      -5.51783970e-06      -4.53119097e-08      -2.00845887e-04 
      -2.75891985e-06      -2.26559549e-08      -1.00422943e-04 
      -2.75891985e-06      -2.26559549e-08      -1.00422943e-04 
      -2.75891985e-06      -2.26559549e-08      -1.00422943e-04 
      -2.75891985e-06      -2.26559549e-08      -1.00422943e-04 
       0.00000000e+00       0.00000000e+00       0.00000000e+00 
       0.00000000e+00       0.00000000e+00       0.00000000e+00 
       0.00000000e+00       0.00000000e+00       0.00000000e+00 
       0.00000000e+00       0.00000000e+00       0.00000000e+00 
       5.42717741e-06      -4.53121592e-08      -2.00836360e-04 
       5.42717741e-06      -4.53121592e-08      -2.00836360e-04 
       5.42717741e-06      -4.53121592e-08      -2.00836360e-04 
       5.42717741e-06      -4.53121592e-08      -2.00836360e-04 
       0.00000000e+00       0.00000000e+00       0.00000000e+00 
       0.00000000e+00       0.00000000e+00       0.00000000e+00 
       0.00000000e+00       0.00000000e+00       0.00000000e+00 
       0.00000000e+00       0.00000000e+00       0.00000000e+00 
       5.42717741e-06      -4.53121592e-08      -2.00836360e-04 
       5.42717741e-06      -4.53121592e-08      -2.00836360e-04 
       5.42717741e-06      -4.53121592e-08      -2.00836360e-04 
       5.42717741e-06      -4.53121592e-08      -2.00836360e-04 
       2.71358871e-06      -2.26560796e-08      -1.00418180e-04 
       2.71358871e-06      -2.26560796e-08      -1.00418180e-04 
       2.71358871e-06      -2.26560796e-08      -1.00418180e-04 
       2.71358871e-06      -2.26560796e-08      -1.00418180e-04 
       0.00000000e+00       0.00000000e+00       0.00000000e+00 
       0.00000000e+00       0.00000000e+00       0.00000000e+00 
       0.00000000e+00       0.00000000e+00       0.00000000e+00 
       0.00000000e+00       0.00000000e+00       0.00000000e+00 
      -4.53282288e-08      -5.51782710e-06      -2.00845946e-04 
      -4.53282288e-08      -5.51782710e-06      -2.00845946e-04 
      -4.53282288e-08      -5.51782710e-06      -2.00845946e-04 
      -4.53282288e-08      -5.51782710e-06      -2.00845946e-04 
       0.00000000e+00       0.00000000e+00       0.00000000e+00 
       0.00000000e+00       0.00000000e+00       0.00000000e+00 
       0.00000000e+00       0.00000000e+00       0.00000000e+00 
       0.00000000e+00       0.00000000e+00       0.00000000e+00 
      -4.53282288e-08      -5.51782710e-06      -2.00845946e-04 
      -4.53282288e-08      -5.51782710e-06      -2.00845946e-04 
      -4.53282288e-08      -5.51782710e-06      -2.00845946e-04 
      -4.53282288e-08      -5.51782710e-06      -2.00845946e-04 
      -2.26641144e-08      -2.75891355e-06      -1.00422973e-04 
      -2.26641144e-08      -2.75891355e-06      -1.00422973e-04 
      -2.26641144e-08      -2.75891355e-06      -1.00422973e-04 
      -2.26641144e-08      -2.75891355e-06      -1.00422973e-04 
       0.00000000e+00       0.00000000e+00       0.00000000e+00 
       0.00000000e+00       0.00000000e+00       0.00000000e+00 
       0.00000000e+00       0.00000000e+00       0.00000000e+00 
       0.00000000e+00       0.00000000e+00       0.00000000e+00 
      -4.53284780e-08       5.42719746e-06      -2.00836422e-04 
      -4.53284780e-08       5.42719746e-06      -2.00836422e-04 
      -4.53284780e-08       5.42719746e-06      -2.00836422e-04 
      -4.53284780e-08       5.42719746e-06      -2.00836422e-04 
       0.00000000e+00       0.00000000e+00       0.00000000e+00 
       0.00000000e+00       0.00000000e+00       0.00000000e+00 
       0.00000000e+00       0.00000000e+00       0.00000000e+00 
       0.00000000e+00       0.00000000e+00       0.00000000e+00 
      -4.53284780e-08       5.42719746e-06      -2.00836422e-04 
      -4.53284780e-08       5.42719746e-06      -2.00836422e-04 
      -4.53284780e-08       5.42719746e-06      -2.00836422e-04 
      -4.53284780e-08       5.42719746e-06      -2.00836422e-04 
      -2.26642390e-08       2.71359873e-06      -1.00418211e-04 
      -2.26642390e-08       2.71359873e-06      -1.00418211e-04 
      -2.26642390e-08       2.71359873e-06      -1.00418211e-04 
      -2.26642390e-08       2.71359873e-06      -1.00418211e-04 
       0.00000000e+00       0.00000000e+00       0.00000000e+00 
       0.00000000e+00       0.00000000e+00       0.00000000e+00 
       0.00000000e+00       0.00000000e+00       0.00000000e+00 
       0.00000000e+00       0.00000000e+00       0.00000000e+00 
      -4.53282288e-08      -5.51782710e-06      -2.00845946e-04 
      -4.53282288e-08      -5.51782710e-06      -2.00845946e-04 
      -4.53282288e-08      -5.51782710e-06      -2.00845946e-04 
      -4.53282288e-08      -5.51782710e-06      -2.00845946e-04 
       0.00000000e+00       0.00000000e+00       0.00000000e+00 
       0.00000000e+00       0.00000000e+00       0.00000000e+00 
       0.00000000e+00       0.00000000e+00       0.00000000e+00 
       0.00000000e+00       0.00000000e+00       0.00000000e+00 
      -4.53282288e-08      -5.51782710e-06      -2.00845946e-04 
      -4.53282288e-08      -5.51782710e-06      -2.00845946e-04 
      -4.53282288e-08      -5.51782710e-06      -2.00845946e-04 
      -4.53282288e-08      -5.51782710e-06      -2.00845946e-04 
      -2.26641144e-08      -2.75891355e-06      -1.00422973e-04 
      -2.26641144e-08      -2.75891355e-06      -1.00422973e-04 
      -2.26641144e-08      -2.75891355e-06      -1.00422973e-04 
      -2.26641144e-08      -2.75891355e-06      -1.00422973e-04 
       0.00000000e+00       0.00000000e+00       0.00000000e+00 
       0.00000000e+00       0.00000000e+00       0.00000000e+00 
       0.00000000e+00       0.00000000e+00       0.00000000e+00 
       0.00000000e+00       0.00000000e+00       0.00000000e+00 
      -5.51783970e-06      -4.53119097e-08      -2.00845887e-04 
      -5.51783970e-06      -4.53119097e-08      -2.00845887e-04 
      -5.51783970e-06      -4.53119097e-08      -2.00845887e-04 
      -5.51783970e-06      -4.53119097e-08      -2.00845887e-04 
       0.00000000e+00       0.00000000e+00       0.00000000e+00 
       0.00000000e+00       0.00000000e+00       0.00000000e+00 
       0.00000000e+00       0.00000000e+00       0.00000000e+00 
       0.00000000e+00       0.00000000e+00       0.00000000e+00 
      -5.51783970e-06      -4.53119097e-08      -2.00845887e-04 
      -5.51783970e-06      -4.53119097e-08      -2.00845887e-04 
      -5.51783970e-06      -4.53119097e-08      -2.00845887e-04 
      -5.51783970e-06      -4.53119097e-08      -2.00845887e-04 
      -2.75891985e-06      -2.26559549e-08      -1.00422943e-04 
      -2.75891985e-06      -2.26559549e-08      -1.00422943e-04 
      -2.75891985e-06      -2.26559549e-08      -1.00422943e-04 
      -2.75891985e-06      -2.26559549e-08      -1.00422943e-04 
       0.00000000e+00       0.00000000e+00       0.00000000e+00 
       0.00000000e+00       0.00000000e+00       0.00000000e+00 
       0.00000000e+00       0.00000000e+00       0.00000000e+00 
       0.00000000e+00       0.00000000e+00       0.00000000e+00 
      -4.53284780e-08       5.42719746e-06      -2.00836422e-04 
      -4.53284780e-08       5.42719746e-06      -2.00836422e-04 
      -4.53284780e-08       5.42719746e-06      -2.00836422e-04 
      -4.53284780e-08       5.42719746e-06      -2.00836422e-04 
       0.00000000e+00       0.00000000e+00       0.00000000e+00 
       0.00000000e+00       0.00000000e+00       0.00000000e+00 
       0.00000000e+00       0.00000000e+00       0.00000000e+00 
       0.00000000e+00       0.00000000e+00       0.00000000e+00 
      -4.53284780e-08       5.42719746e-06      -2.00836422e-04 
      -4.53284780e-08       5.42719746e-06      -2.00836422e-04 
      -4.53284780e-08       5.42719746e-06      -2.00836422e-04 
      -4.53284780e-08       5.42719746e-06      -2.00836422e-04 
      -2.26642390e-08       2.71359873e-06      -1.00418211e-04 
      -2.26642390e-08       2.71359873e-06      -1.00418211e-04 
      -2.26642390e-08       2.71359873e-06      -1.00418211e-04 
      -2.26642390e-08       2.71359873e-06      -1.00418211e-04 
       0.00000000e+00       0.00000000e+00       0.00000000e+00 
       0.00000000e+00       0.00000000e+00       0.00000000e+00 
       0.00000000e+00       0.00000000e+00       0.00000000e+00 
       0.00000000e+00       0.00000000e+00       0.00000000e+00 
      -5.94394108e-05      -5.93560323e-05      -1.07521600e-03 
      -5.94394108e-05      -5.93560323e-05      -1.07521600e-03 
      -5.94394108e-05      -5.93560323e-05      -1.07521600e-03 
      -5.94394108e-05      -5.93560323e-05      -1.07521600e-03 
       0.00000000e+00       0.00000000e+00       0.00000000e+00 
       0.00000000e+00       0.00000000e+00       0.00000000e+00 
       0.00000000e+00       0.00000000e+00       0.00000000e+00 
       0.00000000e+00       0.00000000e+00       0.00000000e+00 
      -5.94394108e-05      -5.93560323e-05      -1.07521600e-03 
      -5.94394108e-05      -5.93560323e-05      -1.07521600e-03 
      -5.94394108e-05      -5.93560323e-05      -1.07521600e-03 
      -5.94394108e-05      -5.93560323e-05      -1.07521600e-03 
      -2.97197054e-05      -2.96780162e-05      -5.37607999e-04 
      -2.97197054e-05      -2.96780162e-05      -5.37607999e-04 
      -2.97197054e-05      -2.96780162e-05      -5.37607999e-04 
      -2.97197054e-05      -2.96780162e-05      -5.37607999e-04 
       0.00000000e+00       0.00000000e+00       0.00000000e+00 
       0.00000000e+00       0.00000000e+00       0.00000000e+00 
       0.00000000e+00       0.00000000e+00       0.00000000e+00 
       0.00000000e+00       0.00000000e+00       0.00000000e+00 
       5.93204457e-05      -5.93614415e-05      -1.07532990e-03 
       5.93204457e-05      -5.93614415e-05      -1.07532990e-03 
       5.93204457e-05      -5.93614415e-05      -1.07532990e-03 
       5.93204457e-05      -5.93614415e-05      -1.07532990e-03 
       0.00000000e+00       0.00000000e+00       0.00000000e+00 
       0.00000000e+00       0.00000000e+00       0.00000000e+00 
       0.00000000e+00       0.00000000e+00       0.00000000e+00 
       0.00000000e+00       0.00000000e+00       0.00000000e+00 
       5.93204457e-05      -5.93614415e-05      -1.07532990e-03 
       5.93204457e-05      -5.93614415e-05      -1.07532990e-03 
       5.93204457e-05      -5.93614415e-05      -1.07532990e-03 
       5.93204457e-05      -5.93614415e-05      -1.07532990e-03 
       2.96602229e-05      -2.96807208e-05      -5.37664952e-04 
       2.96602229e-05      -2.96807208e-05      -5.37664952e-04 
       2.96602229e-05      -2.96807208e-05      -5.37664952e-04 
       2.96602229e-05      -2.96807208e-05      -5.37664952e-04 
       0.00000000e+00       0.00000000e+00       0.00000000e+00 
       0.00000000e+00       0.00000000e+00       0.00000000e+00 
       0.00000000e+00       0.00000000e+00       0.00000000e+00 
       0.00000000e+00       0.00000000e+00       0.00000000e+00 
       5.93258025e-05       5.92425203e-05      -1.07544378e-03 
       5.93258025e-05       5.92425203e-05      -1.07544378e-03 
       5.93258025e-05       5.92425203e-05      -1.07544378e-03 
       5.93258025e-05       5.92425203e-05      -1.07544378e-03 
       0.00000000e+00       0.00000000e+00       0.00000000e+00 
       0.00000000e+00       0.00000000e+00       0.00000000e+00 
       0.00000000e+00       0.00000000e+00       0.00000000e+00 
       0.00000000e+00       0.00000000e+00       0.00000000e+00 
       5.93258025e-05       5.92425203e-05      -1.07544378e-03 
       5.93258025e-05       5.92425203e-05      -1.07544378e-03 
       5.93258025e-05       5.92425203e-05      -1.07544378e-03 
       5.93258025e-05       5.92425203e-05      -1.07544378e-03 
       2.96629012e-05       2.96212601e-05      -5.37721888e-04 
       2.96629012e-05       2.96212601e-05      -5.37721888e-04 
       2.96629012e-05       2.96212601e-05      -5.37721888e-04 
       2.96629012e-05       2.96212601e-05      -5.37721888e-04 
       0.00000000e+00       0.00000000e+00       0.00000000e+00 
       0.00000000e+00       0.00000000e+00       0.00000000e+00 
       0.00000000e+00       0.00000000e+00       0.00000000e+00 
       0.00000000e+00       0.00000000e+00       0.00000000e+00 
      -5.94447666e-05       5.92371100e-05      -1.07532987e-03 
      -5.94447666e-05       5.92371100e-05      -1.07532987e-03 
      -5.94447666e-05       5.92371100e-05      -1.07532987e-03 
      -5.94447666e-05       5.92371100e-05      -1.07532987e-03 
       0.00000000e+00       0.00000000e+00       0.00000000e+00 
       0.00000000e+00       0.00000000e+00       0.00000000e+00 
       0.00000000e+00       0.00000000e+00       0.00000000e+00 
       0.00000000e+00       0.00000000e+00       0.00000000e+00 
      -5.94447666e-05       5.92371100e-05      -1.07532987e-03 
      -5.94447666e-05       5.92371100e-05      -1.07532987e-03 
      -5.94447666e-05       5.92371100e-05      -1.07532987e-03 
      -5.94447666e-05       5.92371100e-05      -1.07532987e-03 
      -2.97223833e-05       2.96185550e-05      -5.37664935e-04 
      -2.97223833e-05       2.96185550e-05      -5.37664935e-04 
      -2.97223833e-05       2.96185550e-05      -5.37664935e-04 
      -2.97223833e-05       2.96185550e-05      -5.37664935e-04 
       5.42717741e-06      -4.53121592e-08      -2.00836360e-04 
       5.42717741e-06      -4.53121592e-08      -2.00836360e-04 
       5.42717741e-06      -4.53121592e-08      -2.00836360e-04 
       5.42717741e-06      -4.53121592e-08      -2.00836360e-04 
      -5.94447666e-05       5.92371100e-05      -1.07532987e-03 
      -5.94447666e-05       5.92371100e-05      -1.07532987e-03 
      -5.94447666e-05       5.92371100e-05      -1.07532987e-03 
      -5.94447666e-05       5.92371100e-05      -1.07532987e-03 
       5.42717741e-06      -4.53121592e-08      -2.00836360e-04 
       5.42717741e-06      -4.53121592e-08      -2.00836360e-04 
       5.42717741e-06      -4.53121592e-08      -2.00836360e-04 
       5.42717741e-06      -4.53121592e-08      -2.00836360e-04 
      -5.94447666e-05       5.92371100e-05      -1.07532987e-03 
      -5.94447666e-05       5.92371100e-05      -1.07532987e-03 
      -5.94447666e-05       5.92371100e-05      -1.07532987e-03 
      -5.94447666e-05       5.92371100e-05      -1.07532987e-03 
      -2.70087946e-05       2.95958989e-05      -6.38083115e-04 
      -2.70087946e-05       2.95958989e-05      -6.38083115e-04 
      -2.70087946e-05       2.95958989e-05      -6.38083115e-04 
      -2.70087946e-05       2.95958989e-05      -6.38083115e-04 
       5.42717741e-06      -4.53121592e-08      -2.00836360e-04 
       5.42717741e-06      -4.53121592e-08      -2.00836360e-04 
       5.42717741e-06      -4.53121592e-08      -2.00836360e-04 
       5.42717741e-06      -4.53121592e-08      -2.00836360e-04 
      -5.94394108e-05      -5.93560323e-05      -1.07521600e-03 
      -5.94394108e-05      -5.93560323e-05      -1.07521600e-03 
      -5.94394108e-05      -5.93560323e-05      -1.07521600e-03 
      -5.94394108e-05      -5.93560323e-05      -1.07521600e-03 
       5.42717741e-06      -4.53121592e-08      -2.00836360e-04 
       5.42717741e-06      -4.53121592e-08      -2.00836360e-04 
       5.42717741e-06      -4.53121592e-08      -2.00836360e-04 
       5.42717741e-06      -4.53121592e-08      -2.00836360e-04 
      -5.94394108e-05      -5.93560323e-05      -1.07521600e-03 
      -5.94394108e-05      -5.93560323e-05      -1.07521600e-03 
      -5.94394108e-05      -5.93560323e-05      -1.07521600e-03 
      -5.94394108e-05      -5.93560323e-05      -1.07521600e-03 
      -2.70061167e-05      -2.97006722e-05      -6.38026179e-04 
      -2.70061167e-05      -2.97006722e-05      -6.38026179e-04 
      -2.70061167e-05      -2.97006722e-05      -6.38026179e-04 
      -2.70061167e-05      -2.97006722e-05      -6.38026179e-04 
      -5.51783970e-06      -4.53119097e-08      -2.00845887e-04 
      -5.51783970e-06      -4.53119097e-08      -2.00845887e-04 
      -5.51783970e-06      -4.53119097e-08      -2.00845887e-04 
      -5.51783970e-06      -4.53119097e-08      -2.00845887e-04 
       5.93258025e-05       5.92425203e-05      -1.07544378e-03 
       5.93258025e-05       5.92425203e-05      -1.07544378e-03 
       5.93258025e-05       5.92425203e-05      -1.07544378e-03 
       5.93258025e-05       5.92425203e-05      -1.07544378e-03 
      -5.51783970e-06      -4.53119097e-08      -2.00845887e-04 
      -5.51783970e-06      -4.53119097e-08      -2.00845887e-04 
      -5.51783970e-06      -4.53119097e-08      -2.00845887e-04 
      -5.51783970e-06      -4.53119097e-08      -2.00845887e-04 
       5.93258025e-05       5.92425203e-05      -1.07544378e-03 
       5.93258025e-05       5.92425203e-05      -1.07544378e-03 
       5.93258025e-05       5.92425203e-05      -1.07544378e-03 
       5.93258025e-05       5.92425203e-05      -1.07544378e-03 
       2.69039814e-05       2.95986042e-05      -6.38144831e-04 
       2.69039814e-05       2.95986042e-05      -6.38144831e-04 
       2.69039814e-05       2.95986042e-05      -6.38144831e-04 
       2.69039814e-05       2.95986042e-05      -6.38144831e-04 
      -5.51783970e-06      -4.53119097e-08      -2.00845887e-04 
      -5.51783970e-06      -4.53119097e-08      -2.00845887e-04 
      -5.51783970e-06      -4.53119097e-08      -2.00845887e-04 
      -5.51783970e-06      -4.53119097e-08      -2.00845887e-04 
      -4.53284780e-08       5.42719746e-06      -2.00836422e-04 
      -4.53284780e-08       5.42719746e-06      -2.00836422e-04 