# vtk DataFile Version 2.0
./output/Static_Tower/Static_Tower_0002.vtk
ASCII
DATASET UNSTRUCTURED_GRID

POINTS 13260 float
      -4.335799e+00       4.312526e+00      -9.533743e-03 
      -4.309007e+00       4.315348e+00      -9.533743e-03 
      -4.311001e+00       4.334274e+00       9.533743e-03 
      -4.337793e+00       4.331452e+00       9.533743e-03 
      -3.880293e+00      -1.087123e-02       4.329465e+00 
      -3.853502e+00      -8.048538e-03       4.329465e+00 
      -3.855496e+00       1.087767e-02       4.348533e+00 
      -3.882287e+00       8.054976e-03       4.348533e+00 
      -4.321990e+00       4.310017e+00      -1.348275e-02 
      -4.304456e+00       4.325396e+00       0.000000e+00 
      -4.324810e+00       4.336783e+00       1.348275e-02 
      -4.342344e+00       4.321404e+00       0.000000e+00 
      -3.866485e+00      -1.337963e-02       4.325516e+00 
      -3.848950e+00       1.999165e-03       4.338999e+00 
      -3.869305e+00       1.338607e-02       4.352482e+00 
      -3.886839e+00      -1.992727e-03       4.338999e+00 
      -4.108046e+00       2.150827e+00       2.159966e+00 
      -4.081255e+00       2.153650e+00       2.159966e+00 
      -4.083249e+00       2.172576e+00       2.179033e+00 
      -4.110040e+00       2.169753e+00       2.179033e+00 
       4.309007e+00       4.315348e+00      -9.533743e-03 
       4.335799e+00       4.312526e+00      -9.533743e-03 
       4.337793e+00       4.331452e+00       9.533743e-03 
       4.311001e+00       4.334274e+00       9.533743e-03 
       3.853502e+00      -8.048538e-03       4.329465e+00 
       3.880293e+00      -1.087123e-02       4.329465e+00 
       3.882287e+00       8.054976e-03       4.348533e+00 
       3.855496e+00       1.087767e-02       4.348533e+00 
       4.321990e+00       4.310017e+00      -1.348275e-02 
       4.342344e+00       4.321404e+00       0.000000e+00 
       4.324810e+00       4.336783e+00       1.348275e-02 
       4.304456e+00       4.325396e+00       0.000000e+00 
       3.866484e+00      -1.337963e-02       4.325516e+00 
       3.886839e+00      -1.992728e-03       4.338999e+00 
       3.869304e+00       1.338607e-02       4.352482e+00 
       3.848950e+00       1.999165e-03       4.338999e+00 
       4.081255e+00       2.153650e+00       2.159966e+00 
       4.108046e+00       2.150827e+00       2.159966e+00 
       4.110040e+00       2.169753e+00       2.179033e+00 
       4.083249e+00       2.172576e+00       2.179033e+00 
      -4.309007e+00      -4.315348e+00      -9.533750e-03 
      -4.335799e+00      -4.312526e+00      -9.533750e-03 
      -4.337793e+00      -4.331452e+00       9.533750e-03 
      -4.311001e+00      -4.334274e+00       9.533750e-03 
      -3.853502e+00       8.054972e-03       4.329465e+00 
      -3.880293e+00       1.087766e-02       4.329465e+00 
      -3.882287e+00      -8.048534e-03       4.348533e+00 
      -3.855496e+00      -1.087122e-02       4.348533e+00 
      -4.321990e+00      -4.310017e+00      -1.348276e-02 
      -4.342344e+00      -4.321404e+00       0.000000e+00 
      -4.324810e+00      -4.336783e+00       1.348276e-02 
      -4.304456e+00      -4.325396e+00       0.000000e+00 
      -3.866485e+00       1.338606e-02       4.325516e+00 
      -3.886839e+00       1.999162e-03       4.338999e+00 
      -3.869305e+00      -1.337962e-02       4.352482e+00 
      -3.848950e+00      -1.992724e-03       4.338999e+00 
      -4.081255e+00      -2.153647e+00       2.159966e+00 
      -4.108046e+00      -2.150824e+00       2.159966e+00 
      -4.110040e+00      -2.169750e+00       2.179033e+00 
      -4.083249e+00      -2.172573e+00       2.179033e+00 
      -4.315348e+00       4.309007e+00      -9.533745e-03 
      -4.312526e+00       4.335799e+00      -9.533745e-03 
      -4.331452e+00       4.337793e+00       9.533745e-03 
      -4.334274e+00       4.311001e+00       9.533745e-03 
       8.051721e-03       3.853505e+00       4.329466e+00 
       1.087439e-02       3.880297e+00       4.329466e+00 
      -8.051812e-03       3.882291e+00       4.348533e+00 
      -1.087448e-02       3.855499e+00       4.348533e+00 
      -4.310017e+00       4.321990e+00      -1.348275e-02 
      -4.321404e+00       4.342344e+00       0.000000e+00 
      -4.336783e+00       4.324810e+00       1.348275e-02 
      -4.325396e+00       4.304456e+00       0.000000e+00 
       1.338280e-02       3.866488e+00       4.325517e+00 
       1.995885e-03       3.886842e+00       4.339000e+00 
      -1.338289e-02       3.869308e+00       4.352482e+00 
      -1.995976e-03       3.848953e+00       4.339000e+00 
      -2.153648e+00       4.081256e+00       2.159966e+00 
      -2.150826e+00       4.108048e+00       2.159966e+00 
      -2.169752e+00       4.110042e+00       2.179033e+00 
      -2.172574e+00       4.083250e+00       2.179033e+00 
      -4.312526e+00      -4.335799e+00      -9.533747e-03 
      -4.315348e+00      -4.309007e+00      -9.533747e-03 
      -4.334274e+00      -4.311001e+00       9.533747e-03 
      -4.331452e+00      -4.337793e+00       9.533747e-03 
       1.087441e-02      -3.880290e+00       4.329465e+00 
       8.051698e-03      -3.853498e+00       4.329465e+00 
      -1.087450e-02      -3.855493e+00       4.348533e+00 
      -8.051789e-03      -3.882284e+00       4.348533e+00 
      -4.310017e+00      -4.321990e+00      -1.348275e-02 
      -4.325396e+00      -4.304456e+00       0.000000e+00 
      -4.336783e+00      -4.324810e+00       1.348275e-02 
      -4.321404e+00      -4.342344e+00       0.000000e+00 
       1.338280e-02      -3.866481e+00       4.325516e+00 
      -1.996005e-03      -3.848947e+00       4.338999e+00 
      -1.338289e-02      -3.869301e+00       4.352482e+00 
       1.995914e-03      -3.886836e+00       4.338999e+00 
      -2.150826e+00      -4.108044e+00       2.159966e+00 
      -2.153648e+00      -4.081253e+00       2.159966e+00 
      -2.172574e+00      -4.083247e+00       2.179033e+00 
      -2.169752e+00      -4.110038e+00       2.179033e+00 
       4.312526e+00       4.335799e+00      -9.533745e-03 
       4.315348e+00       4.309007e+00      -9.533745e-03 
       4.334274e+00       4.311001e+00       9.533745e-03 
       4.331452e+00       4.337793e+00       9.533745e-03 
      -1.087448e-02       3.880297e+00       4.329466e+00 
      -8.051812e-03       3.853505e+00       4.329466e+00 
       1.087439e-02       3.855499e+00       4.348533e+00 
       8.051721e-03       3.882291e+00       4.348533e+00 
       4.310017e+00       4.321990e+00      -1.348275e-02 
       4.325396e+00       4.304456e+00       0.000000e+00 
       4.336783e+00       4.324810e+00       1.348275e-02 
       4.321404e+00       4.342344e+00       0.000000e+00 
      -1.338289e-02       3.866488e+00       4.325517e+00 
       1.995885e-03       3.848953e+00       4.339000e+00 
       1.338280e-02       3.869308e+00       4.352482e+00 
      -1.995976e-03       3.886842e+00       4.339000e+00 
       2.150826e+00       4.108048e+00       2.159966e+00 
       2.153648e+00       4.081256e+00       2.159966e+00 
       2.172574e+00       4.083250e+00       2.179033e+00 
       2.169752e+00       4.110042e+00       2.179033e+00 
       4.335799e+00      -4.312526e+00      -9.533750e-03 
       4.309007e+00      -4.315348e+00      -9.533750e-03 
       4.311001e+00      -4.334274e+00       9.533750e-03 
       4.337793e+00      -4.331452e+00       9.533750e-03 
       3.880293e+00       1.087766e-02       4.329465e+00 
       3.853502e+00       8.054971e-03       4.329465e+00 
       3.855496e+00      -1.087122e-02       4.348533e+00 
       3.882287e+00      -8.048533e-03       4.348533e+00 
       4.321990e+00      -4.310017e+00      -1.348276e-02 
       4.304456e+00      -4.325396e+00       0.000000e+00 
       4.324810e+00      -4.336783e+00       1.348276e-02 
       4.342344e+00      -4.321404e+00       0.000000e+00 
       3.866484e+00       1.338606e-02       4.325516e+00 
       3.848950e+00      -1.992725e-03       4.338999e+00 
       3.869304e+00      -1.337962e-02       4.352482e+00 
       3.886839e+00       1.999162e-03       4.338999e+00 
       4.108046e+00      -2.150824e+00       2.159966e+00 
       4.081255e+00      -2.153647e+00       2.159966e+00 
       4.083249e+00      -2.172573e+00       2.179033e+00 
       4.110040e+00      -2.169750e+00       2.179033e+00 
       4.315348e+00      -4.309007e+00      -9.533747e-03 
       4.312526e+00      -4.335799e+00      -9.533747e-03 
       4.331452e+00      -4.337793e+00       9.533747e-03 
       4.334274e+00      -4.311001e+00       9.533747e-03 
      -8.051788e-03      -3.853498e+00       4.329465e+00 
      -1.087450e-02      -3.880290e+00       4.329465e+00 
       8.051698e-03      -3.882284e+00       4.348533e+00 
       1.087441e-02      -3.855493e+00       4.348533e+00 
       4.310017e+00      -4.321990e+00      -1.348275e-02 
       4.321404e+00      -4.342344e+00       0.000000e+00 
       4.336783e+00      -4.324810e+00       1.348275e-02 
       4.325396e+00      -4.304456e+00       0.000000e+00 
      -1.338289e-02      -3.866481e+00       4.325516e+00 
      -1.996005e-03      -3.886836e+00       4.338999e+00 
       1.338280e-02      -3.869301e+00       4.352482e+00 
       1.995914e-03      -3.848947e+00       4.338999e+00 
       2.153648e+00      -4.081253e+00       2.159966e+00 
       2.150826e+00      -4.108044e+00       2.159966e+00 
       2.169752e+00      -4.110038e+00       2.179033e+00 
       2.172574e+00      -4.083247e+00       2.179033e+00 
      -4.290298e+00      -4.323580e+00      -3.456296e-03 
      -4.323581e+00      -4.290298e+00      -3.456296e-03 
      -4.356502e+00      -4.323220e+00       3.456296e-03 
      -4.323219e+00      -4.356502e+00       3.456296e-03 
      -3.834857e+00      -3.868135e+00       4.334675e+00 
      -3.868140e+00      -3.834853e+00       4.334675e+00 
      -3.901061e+00      -3.867775e+00       4.341588e+00 
[...]
POINT_DATA     13260 
VECTORS Displacements float
       0.00000000e+00       0.00000000e+00       0.00000000e+00 
       0.00000000e+00       0.00000000e+00       0.00000000e+00 
       0.00000000e+00       0.00000000e+00       0.00000000e+00 
       0.00000000e+00       0.00000000e+00       0.00000000e+00 
       5.42717764e-06       3.21887932e-06      -2.00836365e-04 
       5.42717764e-06       3.21887932e-06      -2.00836365e-04 
       5.42717764e-06       3.21887932e-06      -2.00836365e-04 
       5.42717764e-06       3.21887932e-06      -2.00836365e-04 
       0.00000000e+00       0.00000000e+00       0.00000000e+00 
       0.00000000e+00       0.00000000e+00       0.00000000e+00 
       0.00000000e+00       0.00000000e+00       0.00000000e+00 
       0.00000000e+00       0.00000000e+00       0.00000000e+00 
       5.42717764e-06       3.21887932e-06      -2.00836365e-04 
       5.42717764e-06       3.21887932e-06      -2.00836365e-04 
       5.42717764e-06       3.21887932e-06      -2.00836365e-04 
       5.42717764e-06       3.21887932e-06      -2.00836365e-04 
       2.71358882e-06       1.60943966e-06      -1.00418182e-04 
       2.71358882e-06       1.60943966e-06      -1.00418182e-04 
       2.71358882e-06       1.60943966e-06      -1.00418182e-04 
       2.71358882e-06       1.60943966e-06      -1.00418182e-04 
       0.00000000e+00       0.00000000e+00       0.00000000e+00 
       0.00000000e+00       0.00000000e+00       0.00000000e+00 
       0.00000000e+00       0.00000000e+00       0.00000000e+00 
       0.00000000e+00       0.00000000e+00       0.00000000e+00 
      -5.51783988e-06       3.21888995e-06      -2.00845892e-04 
      -5.51783988e-06       3.21888995e-06      -2.00845892e-04 
      -5.51783988e-06       3.21888995e-06      -2.00845892e-04 
      -5.51783988e-06       3.21888995e-06      -2.00845892e-04 
       0.00000000e+00       0.00000000e+00       0.00000000e+00 
       0.00000000e+00       0.00000000e+00       0.00000000e+00 
       0.00000000e+00       0.00000000e+00       0.00000000e+00 
       0.00000000e+00       0.00000000e+00       0.00000000e+00 
      -5.51783988e-06       3.21888995e-06      -2.00845892e-04 
      -5.51783988e-06       3.21888995e-06      -2.00845892e-04 
      -5.51783988e-06       3.21888995e-06      -2.00845892e-04 
      -5.51783988e-06       3.21888995e-06      -2.00845892e-04 
      -2.75891994e-06       1.60944497e-06      -1.00422946e-04 
      -2.75891994e-06       1.60944497e-06      -1.00422946e-04 
      -2.75891994e-06       1.60944497e-06      -1.00422946e-04 
      -2.75891994e-06       1.60944497e-06      -1.00422946e-04 
       0.00000000e+00       0.00000000e+00       0.00000000e+00 
       0.00000000e+00       0.00000000e+00       0.00000000e+00 
       0.00000000e+00       0.00000000e+00       0.00000000e+00 
       0.00000000e+00       0.00000000e+00       0.00000000e+00 
       5.42717764e-06       3.21887932e-06      -2.00836365e-04 
       5.42717764e-06       3.21887932e-06      -2.00836365e-04 
       5.42717764e-06       3.21887932e-06      -2.00836365e-04 
       5.42717764e-06       3.21887932e-06      -2.00836365e-04 
       0.00000000e+00       0.00000000e+00       0.00000000e+00 
       0.00000000e+00       0.00000000e+00       0.00000000e+00 
       0.00000000e+00       0.00000000e+00       0.00000000e+00 
       0.00000000e+00       0.00000000e+00       0.00000000e+00 
       5.42717764e-06       3.21887932e-06      -2.00836365e-04 
       5.42717764e-06       3.21887932e-06      -2.00836365e-04 
       5.42717764e-06       3.21887932e-06      -2.00836365e-04 
       5.42717764e-06       3.21887932e-06      -2.00836365e-04 
       2.71358882e-06       1.60943966e-06      -1.00418182e-04 
       2.71358882e-06       1.60943966e-06      -1.00418182e-04 
       2.71358882e-06       1.60943966e-06      -1.00418182e-04 
       2.71358882e-06       1.60943966e-06      -1.00418182e-04 
       0.00000000e+00       0.00000000e+00       0.00000000e+00 
       0.00000000e+00       0.00000000e+00       0.00000000e+00 
       0.00000000e+00       0.00000000e+00       0.00000000e+00 
       0.00000000e+00       0.00000000e+00       0.00000000e+00 
      -4.53339477e-08      -2.16209390e-06      -2.00494121e-04 
      -4.53339477e-08      -2.16209390e-06      -2.00494121e-04 
      -4.53339477e-08      -2.16209390e-06      -2.00494121e-04 
      -4.53339477e-08      -2.16209390e-06      -2.00494121e-04 
       0.00000000e+00       0.00000000e+00       0.00000000e+00 
       0.00000000e+00       0.00000000e+00       0.00000000e+00 
       0.00000000e+00       0.00000000e+00       0.00000000e+00 
       0.00000000e+00       0.00000000e+00       0.00000000e+00 
      -4.53339477e-08      -2.16209390e-06      -2.00494121e-04 
      -4.53339477e-08      -2.16209390e-06      -2.00494121e-04 
      -4.53339477e-08      -2.16209390e-06      -2.00494121e-04 
      -4.53339477e-08      -2.16209390e-06      -2.00494121e-04 
      -2.26669739e-08      -1.08104695e-06      -1.00247060e-04 
      -2.26669739e-08      -1.08104695e-06      -1.00247060e-04 
      -2.26669739e-08      -1.08104695e-06      -1.00247060e-04 
      -2.26669739e-08      -1.08104695e-06      -1.00247060e-04 
       0.00000000e+00       0.00000000e+00       0.00000000e+00 
       0.00000000e+00       0.00000000e+00       0.00000000e+00 
       0.00000000e+00       0.00000000e+00       0.00000000e+00 
       0.00000000e+00       0.00000000e+00       0.00000000e+00 
      -4.53227128e-08       8.78293054e-06      -2.01188251e-04 
      -4.53227128e-08       8.78293054e-06      -2.01188251e-04 
      -4.53227128e-08       8.78293054e-06      -2.01188251e-04 
      -4.53227128e-08       8.78293054e-06      -2.01188251e-04 
       0.00000000e+00       0.00000000e+00       0.00000000e+00 
       0.00000000e+00       0.00000000e+00       0.00000000e+00 
       0.00000000e+00       0.00000000e+00       0.00000000e+00 
       0.00000000e+00       0.00000000e+00       0.00000000e+00 
      -4.53227128e-08       8.78293054e-06      -2.01188251e-04 
      -4.53227128e-08       8.78293054e-06      -2.01188251e-04 
      -4.53227128e-08       8.78293054e-06      -2.01188251e-04 
      -4.53227128e-08       8.78293054e-06      -2.01188251e-04 
      -2.26613564e-08       4.39146527e-06      -1.00594126e-04 
      -2.26613564e-08       4.39146527e-06      -1.00594126e-04 
      -2.26613564e-08       4.39146527e-06      -1.00594126e-04 
      -2.26613564e-08       4.39146527e-06      -1.00594126e-04 
       0.00000000e+00       0.00000000e+00       0.00000000e+00 
       0.00000000e+00       0.00000000e+00       0.00000000e+00 
       0.00000000e+00       0.00000000e+00       0.00000000e+00 
       0.00000000e+00       0.00000000e+00       0.00000000e+00 
      -4.53339477e-08      -2.16209390e-06      -2.00494121e-04 
      -4.53339477e-08      -2.16209390e-06      -2.00494121e-04 
      -4.53339477e-08      -2.16209390e-06      -2.00494121e-04 
      -4.53339477e-08      -2.16209390e-06      -2.00494121e-04 
       0.00000000e+00       0.00000000e+00       0.00000000e+00 
       0.00000000e+00       0.00000000e+00       0.00000000e+00 
       0.00000000e+00       0.00000000e+00       0.00000000e+00 
       0.00000000e+00       0.00000000e+00       0.00000000e+00 
      -4.53339477e-08      -2.16209390e-06      -2.00494121e-04 
      -4.53339477e-08      -2.16209390e-06      -2.00494121e-04 
      -4.53339477e-08      -2.16209390e-06      -2.00494121e-04 
      -4.53339477e-08      -2.16209390e-06      -2.00494121e-04 
      -2.26669739e-08      -1.08104695e-06      -1.00247060e-04 
      -2.26669739e-08      -1.08104695e-06      -1.00247060e-04 
      -2.26669739e-08      -1.08104695e-06      -1.00247060e-04 
      -2.26669739e-08      -1.08104695e-06      -1.00247060e-04 
       0.00000000e+00       0.00000000e+00       0.00000000e+00 
       0.00000000e+00       0.00000000e+00       0.00000000e+00 
       0.00000000e+00       0.00000000e+00       0.00000000e+00 
       0.00000000e+00       0.00000000e+00       0.00000000e+00 
      -5.51783988e-06       3.21888995e-06      -2.00845892e-04 
      -5.51783988e-06       3.21888995e-06      -2.00845892e-04 
      -5.51783988e-06       3.21888995e-06      -2.00845892e-04 
      -5.51783988e-06       3.21888995e-06      -2.00845892e-04 
       0.00000000e+00       0.00000000e+00       0.00000000e+00 
       0.00000000e+00       0.00000000e+00       0.00000000e+00 
       0.00000000e+00       0.00000000e+00       0.00000000e+00 
       0.00000000e+00       0.00000000e+00       0.00000000e+00 
      -5.51783988e-06       3.21888995e-06      -2.00845892e-04 
      -5.51783988e-06       3.21888995e-06      -2.00845892e-04 
      -5.51783988e-06       3.21888995e-06      -2.00845892e-04 
      -5.51783988e-06       3.21888995e-06      -2.00845892e-04 
      -2.75891994e-06       1.60944497e-06      -1.00422946e-04 
      -2.75891994e-06       1.60944497e-06      -1.00422946e-04 
      -2.75891994e-06       1.60944497e-06      -1.00422946e-04 
      -2.75891994e-06       1.60944497e-06      -1.00422946e-04 
       0.00000000e+00       0.00000000e+00       0.00000000e+00 
       0.00000000e+00       0.00000000e+00       0.00000000e+00 
       0.00000000e+00       0.00000000e+00       0.00000000e+00 
       0.00000000e+00       0.00000000e+00       0.00000000e+00 
      -4.53227128e-08       8.78293054e-06      -2.01188251e-04 
      -4.53227128e-08       8.78293054e-06      -2.01188251e-04 
      -4.53227128e-08       8.78293054e-06      -2.01188251e-04 
      -4.53227128e-08       8.78293054e-06      -2.01188251e-04 
       0.00000000e+00       0.00000000e+00       0.00000000e+00 
       0.00000000e+00       0.00000000e+00       0.00000000e+00 
       0.00000000e+00       0.00000000e+00       0.00000000e+00 
       0.00000000e+00       0.00000000e+00       0.00000000e+00 
      -4.53227128e-08       8.78293054e-06      -2.01188251e-04 
      -4.53227128e-08       8.78293054e-06      -2.01188251e-04 
      -4.53227128e-08       8.78293054e-06      -2.01188251e-04 
      -4.53227128e-08       8.78293054e-06      -2.01188251e-04 
      -2.26613564e-08       4.39146527e-06      -1.00594126e-04 
      -2.26613564e-08       4.39146527e-06      -1.00594126e-04 
      -2.26613564e-08       4.39146527e-06      -1.00594126e-04 
      -2.26613564e-08       4.39146527e-06      -1.00594126e-04 
       0.00000000e+00       0.00000000e+00       0.00000000e+00 
       0.00000000e+00       0.00000000e+00       0.00000000e+00 
       0.00000000e+00       0.00000000e+00       0.00000000e+00 
       0.00000000e+00       0.00000000e+00       0.00000000e+00 
      -5.92724714e-05      -5.51396376e-05      -1.06836514e-03 
      -5.92724714e-05      -5.51396376e-05      -1.06836514e-03 
      -5.92724714e-05      -5.51396376e-05      -1.06836514e-03 
      -5.92724714e-05      -5.51396376e-05      -1.06836514e-03 
       0.00000000e+00       0.00000000e+00       0.00000000e+00 
       0.00000000e+00       0.00000000e+00       0.00000000e+00 
       0.00000000e+00       0.00000000e+00       0.00000000e+00 
       0.00000000e+00       0.00000000e+00       0.00000000e+00 
      -5.92724714e-05      -5.51396376e-05      -1.06836514e-03 
      -5.92724714e-05      -5.51396376e-05      -1.06836514e-03 
      -5.92724714e-05      -5.51396376e-05      -1.06836514e-03 
      -5.92724714e-05      -5.51396376e-05      -1.06836514e-03 
      -2.96362357e-05      -2.75698188e-05      -5.34182568e-04 
      -2.96362357e-05      -2.75698188e-05      -5.34182568e-04 
      -2.96362357e-05      -2.75698188e-05      -5.34182568e-04 
      -2.96362357e-05      -2.75698188e-05      -5.34182568e-04 
       0.00000000e+00       0.00000000e+00       0.00000000e+00 
       0.00000000e+00       0.00000000e+00       0.00000000e+00 
       0.00000000e+00       0.00000000e+00       0.00000000e+00 
       0.00000000e+00       0.00000000e+00       0.00000000e+00 
       5.91535220e-05      -5.51450338e-05      -1.06847904e-03 
       5.91535220e-05      -5.51450338e-05      -1.06847904e-03 
       5.91535220e-05      -5.51450338e-05      -1.06847904e-03 
       5.91535220e-05      -5.51450338e-05      -1.06847904e-03 
       0.00000000e+00       0.00000000e+00       0.00000000e+00 
       0.00000000e+00       0.00000000e+00       0.00000000e+00 
       0.00000000e+00       0.00000000e+00       0.00000000e+00 
       0.00000000e+00       0.00000000e+00       0.00000000e+00 
       5.91535220e-05      -5.51450338e-05      -1.06847904e-03 
       5.91535220e-05      -5.51450338e-05      -1.06847904e-03 
       5.91535220e-05      -5.51450338e-05      -1.06847904e-03 
       5.91535220e-05      -5.51450338e-05      -1.06847904e-03 
       2.95767610e-05      -2.75725169e-05      -5.34239521e-04 
       2.95767610e-05      -2.75725169e-05      -5.34239521e-04 
       2.95767610e-05      -2.75725169e-05      -5.34239521e-04 
       2.95767610e-05      -2.75725169e-05      -5.34239521e-04 
       0.00000000e+00       0.00000000e+00       0.00000000e+00 
       0.00000000e+00       0.00000000e+00       0.00000000e+00 
       0.00000000e+00       0.00000000e+00       0.00000000e+00 
       0.00000000e+00       0.00000000e+00       0.00000000e+00 
       5.94925841e-05       6.34588606e-05      -1.08229466e-03 
       5.94925841e-05       6.34588606e-05      -1.08229466e-03 
       5.94925841e-05       6.34588606e-05      -1.08229466e-03 
       5.94925841e-05       6.34588606e-05      -1.08229466e-03 
       0.00000000e+00       0.00000000e+00       0.00000000e+00 
       0.00000000e+00       0.00000000e+00       0.00000000e+00 
       0.00000000e+00       0.00000000e+00       0.00000000e+00 
       0.00000000e+00       0.00000000e+00       0.00000000e+00 
       5.94925841e-05       6.34588606e-05      -1.08229466e-03 
       5.94925841e-05       6.34588606e-05      -1.08229466e-03 
       5.94925841e-05       6.34588606e-05      -1.08229466e-03 
       5.94925841e-05       6.34588606e-05      -1.08229466e-03 
       2.97462921e-05       3.17294303e-05      -5.41147330e-04 
       2.97462921e-05       3.17294303e-05      -5.41147330e-04 
       2.97462921e-05       3.17294303e-05      -5.41147330e-04 
       2.97462921e-05       3.17294303e-05      -5.41147330e-04 
       0.00000000e+00       0.00000000e+00       0.00000000e+00 
       0.00000000e+00       0.00000000e+00       0.00000000e+00 
       0.00000000e+00       0.00000000e+00       0.00000000e+00 
       0.00000000e+00       0.00000000e+00       0.00000000e+00 
      -5.96115639e-05       6.34534373e-05      -1.08218075e-03 
      -5.96115639e-05       6.34534373e-05      -1.08218075e-03 
      -5.96115639e-05       6.34534373e-05      -1.08218075e-03 
      -5.96115639e-05       6.34534373e-05      -1.08218075e-03 
       0.00000000e+00       0.00000000e+00       0.00000000e+00 
       0.00000000e+00       0.00000000e+00       0.00000000e+00 
       0.00000000e+00       0.00000000e+00       0.00000000e+00 
       0.00000000e+00       0.00000000e+00       0.00000000e+00 
      -5.96115639e-05       6.34534373e-05      -1.08218075e-03 
      -5.96115639e-05       6.34534373e-05      -1.08218075e-03 
      -5.96115639e-05       6.34534373e-05      -1.08218075e-03 
      -5.96115639e-05       6.34534373e-05      -1.08218075e-03 
      -2.98057819e-05       3.17267187e-05      -5.41090377e-04 
      -2.98057819e-05       3.17267187e-05      -5.41090377e-04 
      -2.98057819e-05       3.17267187e-05      -5.41090377e-04 
      -2.98057819e-05       3.17267187e-05      -5.41090377e-04 
       5.42717764e-06       3.21887932e-06      -2.00836365e-04 
       5.42717764e-06       3.21887932e-06      -2.00836365e-04 
       5.42717764e-06       3.21887932e-06      -2.00836365e-04 
       5.42717764e-06       3.21887932e-06      -2.00836365e-04 
      -5.96115639e-05       6.34534373e-05      -1.08218075e-03 
      -5.96115639e-05       6.34534373e-05      -1.08218075e-03 
      -5.96115639e-05       6.34534373e-05      -1.08218075e-03 
      -5.96115639e-05       6.34534373e-05      -1.08218075e-03 
       5.42717764e-06       3.21887932e-06      -2.00836365e-04 
       5.42717764e-06       3.21887932e-06      -2.00836365e-04 
       5.42717764e-06       3.21887932e-06      -2.00836365e-04 
       5.42717764e-06       3.21887932e-06      -2.00836365e-04 
      -5.96115639e-05       6.34534373e-05      -1.08218075e-03 
      -5.96115639e-05       6.34534373e-05      -1.08218075e-03 
      -5.96115639e-05       6.34534373e-05      -1.08218075e-03 
      -5.96115639e-05       6.34534373e-05      -1.08218075e-03 
      -2.70921931e-05       3.33361583e-05      -6.41508559e-04 
      -2.70921931e-05       3.33361583e-05      -6.41508559e-04 
      -2.70921931e-05       3.33361583e-05      -6.41508559e-04 
      -2.70921931e-05       3.33361583e-05      -6.41508559e-04 
       5.42717764e-06       3.21887932e-06      -2.00836365e-04 
       5.42717764e-06       3.21887932e-06      -2.00836365e-04 
       5.42717764e-06       3.21887932e-06      -2.00836365e-04 
       5.42717764e-06       3.21887932e-06      -2.00836365e-04 
      -5.92724714e-05      -5.51396376e-05      -1.06836514e-03 
      -5.92724714e-05      -5.51396376e-05      -1.06836514e-03 
      -5.92724714e-05      -5.51396376e-05      -1.06836514e-03 
      -5.92724714e-05      -5.51396376e-05      -1.06836514e-03 
       5.42717764e-06       3.21887932e-06      -2.00836365e-04 
       5.42717764e-06       3.21887932e-06      -2.00836365e-04 
       5.42717764e-06       3.21887932e-06      -2.00836365e-04 
       5.42717764e-06       3.21887932e-06      -2.00836365e-04 
      -5.92724714e-05      -5.51396376e-05      -1.06836514e-03 
      -5.92724714e-05      -5.51396376e-05      -1.06836514e-03 
      -5.92724714e-05      -5.51396376e-05      -1.06836514e-03 
      -5.92724714e-05      -5.51396376e-05      -1.06836514e-03 
      -2.69226469e-05      -2.59603792e-05      -6.34600750e-04 
      -2.69226469e-05      -2.59603792e-05      -6.34600750e-04 
      -2.69226469e-05      -2.59603792e-05      -6.34600750e-04 
      -2.69226469e-05      -2.59603792e-05      -6.34600750e-04 
      -5.51783988e-06       3.21888995e-06      -2.00845892e-04 
      -5.51783988e-06       3.21888995e-06      -2.00845892e-04 
      -5.51783988e-06       3.21888995e-06      -2.00845892e-04 
      -5.51783988e-06       3.21888995e-06      -2.00845892e-04 
       5.94925841e-05       6.34588606e-05      -1.08229466e-03 
       5.94925841e-05       6.34588606e-05      -1.08229466e-03 
       5.94925841e-05       6.34588606e-05      -1.08229466e-03 
       5.94925841e-05       6.34588606e-05      -1.08229466e-03 
      -5.51783988e-06       3.21888995e-06      -2.00845892e-04 
      -5.51783988e-06       3.21888995e-06      -2.00845892e-04 
      -5.51783988e-06       3.21888995e-06      -2.00845892e-04 
      -5.51783988e-06       3.21888995e-06      -2.00845892e-04 
       5.94925841e-05       6.34588606e-05      -1.08229466e-03 
       5.94925841e-05       6.34588606e-05      -1.08229466e-03 
       5.94925841e-05       6.34588606e-05      -1.08229466e-03 
       5.94925841e-05       6.34588606e-05      -1.08229466e-03 
       2.69873721e-05       3.33388753e-05      -6.41570276e-04 
       2.69873721e-05       3.33388753e-05      -6.41570276e-04 
       2.69873721e-05       3.33388753e-05      -6.41570276e-04 
       2.69873721e-05       3.33388753e-05      -6.41570276e-04 
      -5.51783988e-06       3.21888995e-06      -2.00845892e-04 
      -5.51783988e-06       3.21888995e-06      -2.00845892e-04 
      -5.51783988e-06       3.21888995e-06      -2.00845892e-04 
      -5.51783988e-06       3.21888995e-06      -2.00845892e-04 
      -4.53227128e-08       8.78293054e-06      -2.01188251e-04 
      -4.53227128e-08       8.78293054e-06      -2.01188251e-04 