# vtk DataFile Version 2.0
./output/Static_Tower/Static_Tower_0006.vtk
ASCII
DATASET UNSTRUCTURED_GRID

POINTS 13260 float
      -4.427465e+00       4.404288e+00      -9.630330e-03 
      -4.400659e+00       4.406970e+00      -9.630330e-03 
      -4.402535e+00       4.425712e+00       9.630330e-03 
      -4.429341e+00       4.423030e+00       9.630330e-03 
      -3.985604e+00      -1.071230e-02       4.329467e+00 
      -3.958798e+00      -8.029528e-03       4.329467e+00 
      -3.960674e+00       1.071228e-02       4.348727e+00 
      -3.987480e+00       8.029508e-03       4.348727e+00 
      -4.413674e+00       4.401748e+00      -1.361934e-02 
      -4.396045e+00       4.416897e+00       0.000000e+00 
      -4.416326e+00       4.428252e+00       1.361934e-02 
      -4.433955e+00       4.413103e+00       0.000000e+00 
      -3.971813e+00      -1.325247e-02       4.325478e+00 
      -3.954185e+00       1.896993e-03       4.339097e+00 
      -3.974465e+00       1.325245e-02       4.352716e+00 
      -3.992094e+00      -1.897013e-03       4.339097e+00 
      -4.206535e+00       2.196788e+00       2.159918e+00 
      -4.179729e+00       2.199470e+00       2.159918e+00 
      -4.181605e+00       2.218212e+00       2.179179e+00 
      -4.208410e+00       2.215530e+00       2.179179e+00 
       4.400661e+00       4.406967e+00      -9.630088e-03 
       4.427468e+00       4.404291e+00      -9.630088e-03 
       4.429339e+00       4.423033e+00       9.630088e-03 
       4.402532e+00       4.425709e+00       9.630088e-03 
       3.959920e+00      -8.033374e-03       4.329581e+00 
       3.986726e+00      -1.070941e-02       4.329581e+00 
       3.988597e+00       8.033353e-03       4.348841e+00 
       3.961791e+00       1.070939e-02       4.348841e+00 
       4.413677e+00       4.401747e+00      -1.361900e-02 
       4.433955e+00       4.413108e+00       0.000000e+00 
       4.416323e+00       4.428253e+00       1.361900e-02 
       4.396045e+00       4.416892e+00       0.000000e+00 
       3.972935e+00      -1.325315e-02       4.325592e+00 
       3.993213e+00      -1.892256e-03       4.339211e+00 
       3.975581e+00       1.325313e-02       4.352830e+00 
       3.955303e+00       1.892235e-03       4.339211e+00 
       4.180290e+00       2.199467e+00       2.159975e+00 
       4.207097e+00       2.196791e+00       2.159975e+00 
       4.208968e+00       2.215533e+00       2.179235e+00 
       4.182162e+00       2.218209e+00       2.179235e+00 
      -4.400659e+00      -4.406970e+00      -9.630330e-03 
      -4.427465e+00      -4.404288e+00      -9.630330e-03 
      -4.429341e+00      -4.423030e+00       9.630330e-03 
      -4.402535e+00      -4.425712e+00       9.630330e-03 
      -3.958798e+00       8.029508e-03       4.329467e+00 
      -3.985604e+00       1.071228e-02       4.329467e+00 
      -3.987480e+00      -8.029528e-03       4.348727e+00 
      -3.960674e+00      -1.071230e-02       4.348727e+00 
      -4.413674e+00      -4.401748e+00      -1.361934e-02 
      -4.433955e+00      -4.413103e+00       0.000000e+00 
      -4.416326e+00      -4.428252e+00       1.361934e-02 
      -4.396045e+00      -4.416897e+00       0.000000e+00 
      -3.971813e+00       1.325245e-02       4.325478e+00 
      -3.992094e+00       1.896993e-03       4.339097e+00 
      -3.974465e+00      -1.325247e-02       4.352716e+00 
      -3.954185e+00      -1.897013e-03       4.339097e+00 
      -4.179729e+00      -2.199470e+00       2.159918e+00 
      -4.206535e+00      -2.196788e+00       2.159918e+00 
      -4.208410e+00      -2.215530e+00       2.179179e+00 
      -4.181605e+00      -2.218212e+00       2.179179e+00 
      -4.406969e+00       4.400660e+00      -9.630785e-03 
      -4.404290e+00       4.427467e+00      -9.630785e-03 
      -4.423031e+00       4.429340e+00       9.630785e-03 
      -4.425710e+00       4.402533e+00       9.630785e-03 
       8.576561e-03       3.959359e+00       4.329523e+00 
       1.125564e-02       3.986165e+00       4.329523e+00 
      -7.485499e-03       3.988038e+00       4.348785e+00 
      -1.016458e-02       3.961232e+00       4.348785e+00 
      -4.401748e+00       4.413676e+00      -1.361999e-02 
      -4.413106e+00       4.433955e+00       0.000000e+00 
      -4.428252e+00       4.416324e+00       1.361999e-02 
      -4.416894e+00       4.396045e+00       0.000000e+00 
       1.379752e-02       3.972374e+00       4.325534e+00 
       2.439924e-03       3.992654e+00       4.339154e+00 
      -1.270645e-02       3.975023e+00       4.352774e+00 
      -1.348862e-03       3.954744e+00       4.339154e+00 
      -2.199196e+00       4.180010e+00       2.159946e+00 
      -2.196517e+00       4.206816e+00       2.159946e+00 
      -2.215258e+00       4.208689e+00       2.179208e+00 
      -2.217937e+00       4.181883e+00       2.179208e+00 
      -4.404290e+00      -4.427467e+00      -9.630785e-03 
      -4.406969e+00      -4.400660e+00      -9.630785e-03 
      -4.425710e+00      -4.402533e+00       9.630785e-03 
      -4.423031e+00      -4.429340e+00       9.630785e-03 
       1.125564e-02      -3.986165e+00       4.329523e+00 
       8.576561e-03      -3.959359e+00       4.329523e+00 
      -1.016458e-02      -3.961232e+00       4.348785e+00 
      -7.485500e-03      -3.988038e+00       4.348785e+00 
      -4.401748e+00      -4.413676e+00      -1.361999e-02 
      -4.416894e+00      -4.396045e+00       0.000000e+00 
      -4.428252e+00      -4.416324e+00       1.361999e-02 
      -4.413106e+00      -4.433955e+00       0.000000e+00 
       1.379752e-02      -3.972374e+00       4.325534e+00 
      -1.348862e-03      -3.954744e+00       4.339154e+00 
      -1.270645e-02      -3.975023e+00       4.352774e+00 
       2.439923e-03      -3.992654e+00       4.339154e+00 
      -2.196517e+00      -4.206816e+00       2.159946e+00 
      -2.199196e+00      -4.180010e+00       2.159946e+00 
      -2.217937e+00      -4.181883e+00       2.179208e+00 
      -2.215258e+00      -4.208689e+00       2.179208e+00 
       4.404288e+00       4.427466e+00      -9.629633e-03 
       4.406968e+00       4.400660e+00      -9.629633e-03 
       4.425712e+00       4.402534e+00       9.629633e-03 
       4.423032e+00       4.429340e+00       9.629633e-03 
      -1.016605e-02       3.986165e+00       4.329524e+00 
      -7.486321e-03       3.959359e+00       4.329524e+00 
       1.125711e-02       3.961233e+00       4.348783e+00 
       8.577382e-03       3.988039e+00       4.348783e+00 
       4.401746e+00       4.413675e+00      -1.361836e-02 
       4.416895e+00       4.396045e+00       0.000000e+00 
       4.428254e+00       4.416325e+00       1.361836e-02 
       4.413105e+00       4.433955e+00       0.000000e+00 
      -1.270808e-02       3.972374e+00       4.325535e+00 
       2.440387e-03       3.954744e+00       4.339154e+00 
       1.379914e-02       3.975024e+00       4.352772e+00 
      -1.349326e-03       3.992654e+00       4.339154e+00 
       2.197061e+00       4.206816e+00       2.159947e+00 
       2.199741e+00       4.180009e+00       2.159947e+00 
       2.218484e+00       4.181883e+00       2.179207e+00 
       2.215805e+00       4.208689e+00       2.179207e+00 
       4.427468e+00      -4.404291e+00      -9.630088e-03 
       4.400661e+00      -4.406967e+00      -9.630088e-03 
       4.402532e+00      -4.425709e+00       9.630088e-03 
       4.429339e+00      -4.423033e+00       9.630088e-03 
       3.986726e+00       1.070939e-02       4.329581e+00 
       3.959920e+00       8.033353e-03       4.329581e+00 
       3.961791e+00      -1.070941e-02       4.348841e+00 
       3.988597e+00      -8.033374e-03       4.348841e+00 
       4.413677e+00      -4.401747e+00      -1.361900e-02 
       4.396045e+00      -4.416892e+00       0.000000e+00 
       4.416323e+00      -4.428253e+00       1.361900e-02 
       4.433955e+00      -4.413108e+00       0.000000e+00 
       3.972935e+00       1.325313e-02       4.325592e+00 
       3.955303e+00      -1.892256e-03       4.339211e+00 
       3.975581e+00      -1.325315e-02       4.352830e+00 
       3.993213e+00       1.892235e-03       4.339211e+00 
       4.207097e+00      -2.196791e+00       2.159975e+00 
       4.180290e+00      -2.199467e+00       2.159975e+00 
       4.182162e+00      -2.218209e+00       2.179235e+00 
       4.208968e+00      -2.215533e+00       2.179235e+00 
       4.406968e+00      -4.400660e+00      -9.629633e-03 
       4.404288e+00      -4.427466e+00      -9.629633e-03 
       4.423032e+00      -4.429340e+00       9.629633e-03 
       4.425712e+00      -4.402534e+00       9.629633e-03 
      -7.486321e-03      -3.959359e+00       4.329524e+00 
      -1.016605e-02      -3.986165e+00       4.329524e+00 
       8.577382e-03      -3.988039e+00       4.348783e+00 
       1.125711e-02      -3.961233e+00       4.348783e+00 
       4.401746e+00      -4.413675e+00      -1.361836e-02 
       4.413105e+00      -4.433955e+00       0.000000e+00 
       4.428254e+00      -4.416325e+00       1.361836e-02 
       4.416895e+00      -4.396045e+00       0.000000e+00 
      -1.270808e-02      -3.972374e+00       4.325535e+00 
      -1.349326e-03      -3.992654e+00       4.339154e+00 
       1.379914e-02      -3.975024e+00       4.352772e+00 
       2.440387e-03      -3.954744e+00       4.339154e+00 
       2.199741e+00      -4.180009e+00       2.159947e+00 
       2.197061e+00      -4.206816e+00       2.159947e+00 
       2.215805e+00      -4.208689e+00       2.179207e+00 
       2.218484e+00      -4.181883e+00       2.179207e+00 
      -4.381887e+00      -4.415195e+00      -3.352420e-03 
      -4.415144e+00      -4.381887e+00      -3.352420e-03 
      -4.448113e+00      -4.414805e+00       3.352420e-03 
      -4.414856e+00      -4.448113e+00       3.352420e-03 
      -3.939886e+00      -3.973882e+00       4.336654e+00 
      -3.973143e+00      -3.940573e+00       4.336654e+00 
      -4.006112e+00      -3.973491e+00       4.343359e+00 
[...]
POINT_DATA     13260 
VECTORS Displacements float
       0.00000000e+00       0.00000000e+00       0.00000000e+00 
       0.00000000e+00       0.00000000e+00       0.00000000e+00 
       0.00000000e+00       0.00000000e+00       0.00000000e+00 
       0.00000000e+00       0.00000000e+00       0.00000000e+00 
       5.60832738e-04      -1.01109538e-08      -1.03111523e-04 
       5.60832738e-04      -1.01109538e-08      -1.03111523e-04 
       5.60832738e-04      -1.01109538e-08      -1.03111523e-04 
       5.60832738e-04      -1.01109538e-08      -1.03111523e-04 
       0.00000000e+00       0.00000000e+00       0.00000000e+00 
       0.00000000e+00       0.00000000e+00       0.00000000e+00 
       0.00000000e+00       0.00000000e+00       0.00000000e+00 
       0.00000000e+00       0.00000000e+00       0.00000000e+00 
       5.60832738e-04      -1.01109538e-08      -1.03111523e-04 
       5.60832738e-04      -1.01109538e-08      -1.03111523e-04 
       5.60832738e-04      -1.01109538e-08      -1.03111523e-04 
       5.60832738e-04      -1.01109538e-08      -1.03111523e-04 
       2.80416369e-04      -5.05547690e-09      -5.15557614e-05 
       2.80416369e-04      -5.05547690e-09      -5.15557614e-05 
       2.80416369e-04      -5.05547690e-09      -5.15557614e-05 
       2.80416369e-04      -5.05547690e-09      -5.15557614e-05 
       0.00000000e+00       0.00000000e+00       0.00000000e+00 
       0.00000000e+00       0.00000000e+00       0.00000000e+00 
       0.00000000e+00       0.00000000e+00       0.00000000e+00 
       0.00000000e+00       0.00000000e+00       0.00000000e+00 
       5.58408792e-04      -1.04647992e-08       1.06959430e-05 
       5.58408792e-04      -1.04647992e-08       1.06959430e-05 
       5.58408792e-04      -1.04647992e-08       1.06959430e-05 
       5.58408792e-04      -1.04647992e-08       1.06959430e-05 
       0.00000000e+00       0.00000000e+00       0.00000000e+00 
       0.00000000e+00       0.00000000e+00       0.00000000e+00 
       0.00000000e+00       0.00000000e+00       0.00000000e+00 
       0.00000000e+00       0.00000000e+00       0.00000000e+00 
       5.58408792e-04      -1.04647992e-08       1.06959430e-05 
       5.58408792e-04      -1.04647992e-08       1.06959430e-05 
       5.58408792e-04      -1.04647992e-08       1.06959430e-05 
       5.58408792e-04      -1.04647992e-08       1.06959430e-05 
       2.79204396e-04      -5.23239958e-09       5.34797151e-06 
       2.79204396e-04      -5.23239958e-09       5.34797151e-06 
       2.79204396e-04      -5.23239958e-09       5.34797151e-06 
       2.79204396e-04      -5.23239958e-09       5.34797151e-06 
       0.00000000e+00       0.00000000e+00       0.00000000e+00 
       0.00000000e+00       0.00000000e+00       0.00000000e+00 
       0.00000000e+00       0.00000000e+00       0.00000000e+00 
       0.00000000e+00       0.00000000e+00       0.00000000e+00 
       5.60832738e-04      -1.01109538e-08      -1.03111523e-04 
       5.60832738e-04      -1.01109538e-08      -1.03111523e-04 
       5.60832738e-04      -1.01109538e-08      -1.03111523e-04 
       5.60832738e-04      -1.01109538e-08      -1.03111523e-04 
       0.00000000e+00       0.00000000e+00       0.00000000e+00 
       0.00000000e+00       0.00000000e+00       0.00000000e+00 
       0.00000000e+00       0.00000000e+00       0.00000000e+00 
       0.00000000e+00       0.00000000e+00       0.00000000e+00 
       5.60832738e-04      -1.01109538e-08      -1.03111523e-04 
       5.60832738e-04      -1.01109538e-08      -1.03111523e-04 
       5.60832738e-04      -1.01109538e-08      -1.03111523e-04 
       5.60832738e-04      -1.01109538e-08      -1.03111523e-04 
       2.80416369e-04      -5.05547690e-09      -5.15557614e-05 
       2.80416369e-04      -5.05547690e-09      -5.15557614e-05 
       2.80416369e-04      -5.05547690e-09      -5.15557614e-05 
       2.80416369e-04      -5.05547690e-09      -5.15557614e-05 
       0.00000000e+00       0.00000000e+00       0.00000000e+00 
       0.00000000e+00       0.00000000e+00       0.00000000e+00 
       0.00000000e+00       0.00000000e+00       0.00000000e+00 
       0.00000000e+00       0.00000000e+00       0.00000000e+00 
       5.45530879e-04      -1.22869940e-06      -4.62660280e-05 
       5.45530879e-04      -1.22869940e-06      -4.62660280e-05 
       5.45530879e-04      -1.22869940e-06      -4.62660280e-05 
       5.45530879e-04      -1.22869940e-06      -4.62660280e-05 
       0.00000000e+00       0.00000000e+00       0.00000000e+00 
       0.00000000e+00       0.00000000e+00       0.00000000e+00 
       0.00000000e+00       0.00000000e+00       0.00000000e+00 
       0.00000000e+00       0.00000000e+00       0.00000000e+00 
       5.45530879e-04      -1.22869940e-06      -4.62660280e-05 
       5.45530879e-04      -1.22869940e-06      -4.62660280e-05 
       5.45530879e-04      -1.22869940e-06      -4.62660280e-05 
       5.45530879e-04      -1.22869940e-06      -4.62660280e-05 
       2.72765440e-04      -6.14349698e-07      -2.31330140e-05 
       2.72765440e-04      -6.14349698e-07      -2.31330140e-05 
       2.72765440e-04      -6.14349698e-07      -2.31330140e-05 
       2.72765440e-04      -6.14349698e-07      -2.31330140e-05 
       0.00000000e+00       0.00000000e+00       0.00000000e+00 
       0.00000000e+00       0.00000000e+00       0.00000000e+00 
       0.00000000e+00       0.00000000e+00       0.00000000e+00 
       0.00000000e+00       0.00000000e+00       0.00000000e+00 
       5.45530583e-04       1.20812331e-06      -4.62639349e-05 
       5.45530583e-04       1.20812331e-06      -4.62639349e-05 
       5.45530583e-04       1.20812331e-06      -4.62639349e-05 
       5.45530583e-04       1.20812331e-06      -4.62639349e-05 
       0.00000000e+00       0.00000000e+00       0.00000000e+00 
       0.00000000e+00       0.00000000e+00       0.00000000e+00 
       0.00000000e+00       0.00000000e+00       0.00000000e+00 
       0.00000000e+00       0.00000000e+00       0.00000000e+00 
       5.45530583e-04       1.20812331e-06      -4.62639349e-05 
       5.45530583e-04       1.20812331e-06      -4.62639349e-05 
       5.45530583e-04       1.20812331e-06      -4.62639349e-05 
       5.45530583e-04       1.20812331e-06      -4.62639349e-05 
       2.72765291e-04       6.04061654e-07      -2.31319675e-05 
       2.72765291e-04       6.04061654e-07      -2.31319675e-05 
       2.72765291e-04       6.04061654e-07      -2.31319675e-05 
       2.72765291e-04       6.04061654e-07      -2.31319675e-05 
       0.00000000e+00       0.00000000e+00       0.00000000e+00 
       0.00000000e+00       0.00000000e+00       0.00000000e+00 
       0.00000000e+00       0.00000000e+00       0.00000000e+00 
       0.00000000e+00       0.00000000e+00       0.00000000e+00 
       5.45530879e-04      -1.22869940e-06      -4.62660280e-05 
       5.45530879e-04      -1.22869940e-06      -4.62660280e-05 
       5.45530879e-04      -1.22869940e-06      -4.62660280e-05 
       5.45530879e-04      -1.22869940e-06      -4.62660280e-05 
       0.00000000e+00       0.00000000e+00       0.00000000e+00 
       0.00000000e+00       0.00000000e+00       0.00000000e+00 
       0.00000000e+00       0.00000000e+00       0.00000000e+00 
       0.00000000e+00       0.00000000e+00       0.00000000e+00 
       5.45530879e-04      -1.22869940e-06      -4.62660280e-05 
       5.45530879e-04      -1.22869940e-06      -4.62660280e-05 
       5.45530879e-04      -1.22869940e-06      -4.62660280e-05 
       5.45530879e-04      -1.22869940e-06      -4.62660280e-05 
       2.72765440e-04      -6.14349698e-07      -2.31330140e-05 
       2.72765440e-04      -6.14349698e-07      -2.31330140e-05 
       2.72765440e-04      -6.14349698e-07      -2.31330140e-05 
       2.72765440e-04      -6.14349698e-07      -2.31330140e-05 
       0.00000000e+00       0.00000000e+00       0.00000000e+00 
       0.00000000e+00       0.00000000e+00       0.00000000e+00 
       0.00000000e+00       0.00000000e+00       0.00000000e+00 
       0.00000000e+00       0.00000000e+00       0.00000000e+00 
       5.58408792e-04      -1.04647992e-08       1.06959430e-05 
       5.58408792e-04      -1.04647992e-08       1.06959430e-05 
       5.58408792e-04      -1.04647992e-08       1.06959430e-05 
       5.58408792e-04      -1.04647992e-08       1.06959430e-05 
       0.00000000e+00       0.00000000e+00       0.00000000e+00 
       0.00000000e+00       0.00000000e+00       0.00000000e+00 
       0.00000000e+00       0.00000000e+00       0.00000000e+00 
       0.00000000e+00       0.00000000e+00       0.00000000e+00 
       5.58408792e-04      -1.04647992e-08       1.06959430e-05 
       5.58408792e-04      -1.04647992e-08       1.06959430e-05 
       5.58408792e-04      -1.04647992e-08       1.06959430e-05 
       5.58408792e-04      -1.04647992e-08       1.06959430e-05 
       2.79204396e-04      -5.23239958e-09       5.34797151e-06 
       2.79204396e-04      -5.23239958e-09       5.34797151e-06 
       2.79204396e-04      -5.23239958e-09       5.34797151e-06 
       2.79204396e-04      -5.23239958e-09       5.34797151e-06 
       0.00000000e+00       0.00000000e+00       0.00000000e+00 
       0.00000000e+00       0.00000000e+00       0.00000000e+00 
       0.00000000e+00       0.00000000e+00       0.00000000e+00 
       0.00000000e+00       0.00000000e+00       0.00000000e+00 
       5.45530583e-04       1.20812331e-06      -4.62639349e-05 
       5.45530583e-04       1.20812331e-06      -4.62639349e-05 
       5.45530583e-04       1.20812331e-06      -4.62639349e-05 
       5.45530583e-04       1.20812331e-06      -4.62639349e-05 
       0.00000000e+00       0.00000000e+00       0.00000000e+00 
       0.00000000e+00       0.00000000e+00       0.00000000e+00 
       0.00000000e+00       0.00000000e+00       0.00000000e+00 
       0.00000000e+00       0.00000000e+00       0.00000000e+00 
       5.45530583e-04       1.20812331e-06      -4.62639349e-05 
       5.45530583e-04       1.20812331e-06      -4.62639349e-05 
       5.45530583e-04       1.20812331e-06      -4.62639349e-05 
       5.45530583e-04       1.20812331e-06      -4.62639349e-05 
       2.72765291e-04       6.04061654e-07      -2.31319675e-05 
       2.72765291e-04       6.04061654e-07      -2.31319675e-05 
       2.72765291e-04       6.04061654e-07      -2.31319675e-05 
       2.72765291e-04       6.04061654e-07      -2.31319675e-05 
       0.00000000e+00       0.00000000e+00       0.00000000e+00 
       0.00000000e+00       0.00000000e+00       0.00000000e+00 
       0.00000000e+00       0.00000000e+00       0.00000000e+00 
       0.00000000e+00       0.00000000e+00       0.00000000e+00 
       7.00989787e-04       1.38846845e-05       8.06307054e-04 
       7.00989787e-04       1.38846845e-05       8.06307054e-04 
       7.00989787e-04       1.38846845e-05       8.06307054e-04 
       7.00989787e-04       1.38846845e-05       8.06307054e-04 
       0.00000000e+00       0.00000000e+00       0.00000000e+00 
       0.00000000e+00       0.00000000e+00       0.00000000e+00 
       0.00000000e+00       0.00000000e+00       0.00000000e+00 
       0.00000000e+00       0.00000000e+00       0.00000000e+00 
       7.00989787e-04       1.38846845e-05       8.06307054e-04 
       7.00989787e-04       1.38846845e-05       8.06307054e-04 
       7.00989787e-04       1.38846845e-05       8.06307054e-04 
       7.00989787e-04       1.38846845e-05       8.06307054e-04 
       3.50494894e-04       6.94234223e-06       4.03153527e-04 
       3.50494894e-04       6.94234223e-06       4.03153527e-04 
       3.50494894e-04       6.94234223e-06       4.03153527e-04 
       3.50494894e-04       6.94234223e-06       4.03153527e-04 
       0.00000000e+00       0.00000000e+00       0.00000000e+00 
       0.00000000e+00       0.00000000e+00       0.00000000e+00 
       0.00000000e+00       0.00000000e+00       0.00000000e+00 
       0.00000000e+00       0.00000000e+00       0.00000000e+00 
       7.23636368e-04      -3.52043677e-05      -1.15743709e-03 
       7.23636368e-04      -3.52043677e-05      -1.15743709e-03 
       7.23636368e-04      -3.52043677e-05      -1.15743709e-03 
       7.23636368e-04      -3.52043677e-05      -1.15743709e-03 
       0.00000000e+00       0.00000000e+00       0.00000000e+00 
       0.00000000e+00       0.00000000e+00       0.00000000e+00 
       0.00000000e+00       0.00000000e+00       0.00000000e+00 
       0.00000000e+00       0.00000000e+00       0.00000000e+00 
       7.23636368e-04      -3.52043677e-05      -1.15743709e-03 
       7.23636368e-04      -3.52043677e-05      -1.15743709e-03 
       7.23636368e-04      -3.52043677e-05      -1.15743709e-03 
       7.23636368e-04      -3.52043677e-05      -1.15743709e-03 
       3.61818184e-04      -1.76021839e-05      -5.78718545e-04 
       3.61818184e-04      -1.76021839e-05      -5.78718545e-04 
       3.61818184e-04      -1.76021839e-05      -5.78718545e-04 
       3.61818184e-04      -1.76021839e-05      -5.78718545e-04 
       0.00000000e+00       0.00000000e+00       0.00000000e+00 
       0.00000000e+00       0.00000000e+00       0.00000000e+00 
       0.00000000e+00       0.00000000e+00       0.00000000e+00 
       0.00000000e+00       0.00000000e+00       0.00000000e+00 
       7.23637957e-04       3.51766280e-05      -1.15746394e-03 
       7.23637957e-04       3.51766280e-05      -1.15746394e-03 
       7.23637957e-04       3.51766280e-05      -1.15746394e-03 
       7.23637957e-04       3.51766280e-05      -1.15746394e-03 
       0.00000000e+00       0.00000000e+00       0.00000000e+00 
       0.00000000e+00       0.00000000e+00       0.00000000e+00 
       0.00000000e+00       0.00000000e+00       0.00000000e+00 
       0.00000000e+00       0.00000000e+00       0.00000000e+00 
       7.23637957e-04       3.51766280e-05      -1.15746394e-03 
       7.23637957e-04       3.51766280e-05      -1.15746394e-03 
       7.23637957e-04       3.51766280e-05      -1.15746394e-03 
       7.23637957e-04       3.51766280e-05      -1.15746394e-03 
       3.61818979e-04       1.75883140e-05      -5.78731972e-04 
       3.61818979e-04       1.75883140e-05      -5.78731972e-04 
       3.61818979e-04       1.75883140e-05      -5.78731972e-04 
       3.61818979e-04       1.75883140e-05      -5.78731972e-04 
       0.00000000e+00       0.00000000e+00       0.00000000e+00 
       0.00000000e+00       0.00000000e+00       0.00000000e+00 
       0.00000000e+00       0.00000000e+00       0.00000000e+00 
       0.00000000e+00       0.00000000e+00       0.00000000e+00 
       7.00988931e-04      -1.39114327e-05       8.06280277e-04 
       7.00988931e-04      -1.39114327e-05       8.06280277e-04 
       7.00988931e-04      -1.39114327e-05       8.06280277e-04 
       7.00988931e-04      -1.39114327e-05       8.06280277e-04 
       0.00000000e+00       0.00000000e+00       0.00000000e+00 
       0.00000000e+00       0.00000000e+00       0.00000000e+00 
       0.00000000e+00       0.00000000e+00       0.00000000e+00 
       0.00000000e+00       0.00000000e+00       0.00000000e+00 
       7.00988931e-04      -1.39114327e-05       8.06280277e-04 
       7.00988931e-04      -1.39114327e-05       8.06280277e-04 
       7.00988931e-04      -1.39114327e-05       8.06280277e-04 
       7.00988931e-04      -1.39114327e-05       8.06280277e-04 
       3.50494466e-04      -6.95571636e-06       4.03140139e-04 
       3.50494466e-04      -6.95571636e-06       4.03140139e-04 
       3.50494466e-04      -6.95571636e-06       4.03140139e-04 
       3.50494466e-04      -6.95571636e-06       4.03140139e-04 
       5.60832738e-04      -1.01109538e-08      -1.03111523e-04 
       5.60832738e-04      -1.01109538e-08      -1.03111523e-04 
       5.60832738e-04      -1.01109538e-08      -1.03111523e-04 
       5.60832738e-04      -1.01109538e-08      -1.03111523e-04 
       7.00988931e-04      -1.39114327e-05       8.06280277e-04 
       7.00988931e-04      -1.39114327e-05       8.06280277e-04 
       7.00988931e-04      -1.39114327e-05       8.06280277e-04 
       7.00988931e-04      -1.39114327e-05       8.06280277e-04 
       5.60832738e-04      -1.01109538e-08      -1.03111523e-04 
       5.60832738e-04      -1.01109538e-08      -1.03111523e-04 
       5.60832738e-04      -1.01109538e-08      -1.03111523e-04 
       5.60832738e-04      -1.01109538e-08      -1.03111523e-04 
       7.00988931e-04      -1.39114327e-05       8.06280277e-04 
       7.00988931e-04      -1.39114327e-05       8.06280277e-04 
       7.00988931e-04      -1.39114327e-05       8.06280277e-04 
       7.00988931e-04      -1.39114327e-05       8.06280277e-04 
       6.30910835e-04      -6.96077183e-06       3.51584377e-04 
       6.30910835e-04      -6.96077183e-06       3.51584377e-04 
       6.30910835e-04      -6.96077183e-06       3.51584377e-04 
       6.30910835e-04      -6.96077183e-06       3.51584377e-04 
       5.60832738e-04      -1.01109538e-08      -1.03111523e-04 
       5.60832738e-04      -1.01109538e-08      -1.03111523e-04 
       5.60832738e-04      -1.01109538e-08      -1.03111523e-04 
       5.60832738e-04      -1.01109538e-08      -1.03111523e-04 
       7.00989787e-04       1.38846845e-05       8.06307054e-04 
       7.00989787e-04       1.38846845e-05       8.06307054e-04 
       7.00989787e-04       1.38846845e-05       8.06307054e-04 
       7.00989787e-04       1.38846845e-05       8.06307054e-04 
       5.60832738e-04      -1.01109538e-08      -1.03111523e-04 
       5.60832738e-04      -1.01109538e-08      -1.03111523e-04 
       5.60832738e-04      -1.01109538e-08      -1.03111523e-04 
       5.60832738e-04      -1.01109538e-08      -1.03111523e-04 
       7.00989787e-04       1.38846845e-05       8.06307054e-04 
       7.00989787e-04       1.38846845e-05       8.06307054e-04 
       7.00989787e-04       1.38846845e-05       8.06307054e-04 
       7.00989787e-04       1.38846845e-05       8.06307054e-04 
       6.30911262e-04       6.93728675e-06       3.51597766e-04 
       6.30911262e-04       6.93728675e-06       3.51597766e-04 
       6.30911262e-04       6.93728675e-06       3.51597766e-04 
       6.30911262e-04       6.93728675e-06       3.51597766e-04 
       5.58408792e-04      -1.04647992e-08       1.06959430e-05 
       5.58408792e-04      -1.04647992e-08       1.06959430e-05 
       5.58408792e-04      -1.04647992e-08       1.06959430e-05 
       5.58408792e-04      -1.04647992e-08       1.06959430e-05 
       7.23637957e-04       3.51766280e-05      -1.15746394e-03 
       7.23637957e-04       3.51766280e-05      -1.15746394e-03 
       7.23637957e-04       3.51766280e-05      -1.15746394e-03 
       7.23637957e-04       3.51766280e-05      -1.15746394e-03 
       5.58408792e-04      -1.04647992e-08       1.06959430e-05 
       5.58408792e-04      -1.04647992e-08       1.06959430e-05 
       5.58408792e-04      -1.04647992e-08       1.06959430e-05 
       5.58408792e-04      -1.04647992e-08       1.06959430e-05 
       7.23637957e-04       3.51766280e-05      -1.15746394e-03 
       7.23637957e-04       3.51766280e-05      -1.15746394e-03 
       7.23637957e-04       3.51766280e-05      -1.15746394e-03 
       7.23637957e-04       3.51766280e-05      -1.15746394e-03 
       6.41023375e-04       1.75830816e-05      -5.73384001e-04 
       6.41023375e-04       1.75830816e-05      -5.73384001e-04 
       6.41023375e-04       1.75830816e-05      -5.73384001e-04 
       6.41023375e-04       1.75830816e-05      -5.73384001e-04 
       5.58408792e-04      -1.04647992e-08       1.06959430e-05 
       5.58408792e-04      -1.04647992e-08       1.06959430e-05 
       5.58408792e-04      -1.04647992e-08       1.06959430e-05 
       5.58408792e-04      -1.04647992e-08       1.06959430e-05 
       5.45530583e-04       1.20812331e-06      -4.62639349e-05 
       5.45530583e-04       1.20812331e-06      -4.62639349e-05 