# vtk DataFile Version 2.0
./output/Static_Tower/Static_Tower_0001.vtk
ASCII
DATASET UNSTRUCTURED_GRID

POINTS 13260 float
      -4.335799e+00       4.312525e+00      -9.533658e-03 
      -4.309007e+00       4.315348e+00      -9.533658e-03 
      -4.311001e+00       4.334275e+00       9.533658e-03 
      -4.337793e+00       4.331452e+00       9.533658e-03 
      -3.880295e+00      -1.087291e-02       4.329544e+00 
      -3.853504e+00      -8.050232e-03       4.329544e+00 
      -3.855498e+00       1.087615e-02       4.348611e+00 
      -3.882289e+00       8.053466e-03       4.348611e+00 
      -4.321990e+00       4.310017e+00      -1.348263e-02 
      -4.304456e+00       4.325396e+00       0.000000e+00 
      -4.324810e+00       4.336783e+00       1.348263e-02 
      -4.342344e+00       4.321404e+00       0.000000e+00 
      -3.866487e+00      -1.338135e-02       4.325595e+00 
      -3.848952e+00       1.997553e-03       4.339078e+00 
      -3.869307e+00       1.338459e-02       4.352560e+00 
      -3.886841e+00      -1.994319e-03       4.339078e+00 
      -4.108047e+00       2.150826e+00       2.160005e+00 
      -4.081256e+00       2.153649e+00       2.160005e+00 
      -4.083250e+00       2.172575e+00       2.179073e+00 
      -4.110041e+00       2.169753e+00       2.179073e+00 
       4.309007e+00       4.315348e+00      -9.533658e-03 
       4.335799e+00       4.312525e+00      -9.533658e-03 
       4.337793e+00       4.331452e+00       9.533658e-03 
       4.311001e+00       4.334275e+00       9.533658e-03 
       3.853504e+00      -8.050232e-03       4.329544e+00 
       3.880295e+00      -1.087291e-02       4.329544e+00 
       3.882289e+00       8.053466e-03       4.348611e+00 
       3.855498e+00       1.087615e-02       4.348611e+00 
       4.321990e+00       4.310017e+00      -1.348263e-02 
       4.342344e+00       4.321404e+00       0.000000e+00 
       4.324810e+00       4.336783e+00       1.348263e-02 
       4.304456e+00       4.325396e+00       0.000000e+00 
       3.866487e+00      -1.338135e-02       4.325595e+00 
       3.886841e+00      -1.994320e-03       4.339078e+00 
       3.869307e+00       1.338459e-02       4.352560e+00 
       3.848952e+00       1.997553e-03       4.339078e+00 
       4.081256e+00       2.153649e+00       2.160005e+00 
       4.108047e+00       2.150826e+00       2.160005e+00 
       4.110041e+00       2.169753e+00       2.179073e+00 
       4.083250e+00       2.172575e+00       2.179073e+00 
      -4.309007e+00      -4.315348e+00      -9.533662e-03 
      -4.335799e+00      -4.312525e+00      -9.533662e-03 
      -4.337793e+00      -4.331452e+00       9.533662e-03 
      -4.311001e+00      -4.334275e+00       9.533662e-03 
      -3.853504e+00       8.053464e-03       4.329544e+00 
      -3.880295e+00       1.087614e-02       4.329544e+00 
      -3.882289e+00      -8.050230e-03       4.348611e+00 
      -3.855498e+00      -1.087291e-02       4.348611e+00 
      -4.321990e+00      -4.310017e+00      -1.348263e-02 
      -4.342344e+00      -4.321404e+00       0.000000e+00 
      -4.324810e+00      -4.336783e+00       1.348263e-02 
      -4.304456e+00      -4.325396e+00       0.000000e+00 
      -3.866487e+00       1.338458e-02       4.325595e+00 
      -3.886841e+00       1.997552e-03       4.339078e+00 
      -3.869307e+00      -1.338135e-02       4.352560e+00 
      -3.848952e+00      -1.994318e-03       4.339078e+00 
      -4.081256e+00      -2.153647e+00       2.160005e+00 
      -4.108047e+00      -2.150825e+00       2.160005e+00 
      -4.110041e+00      -2.169751e+00       2.179073e+00 
      -4.083250e+00      -2.172574e+00       2.179073e+00 
      -4.315348e+00       4.309007e+00      -9.533659e-03 
      -4.312525e+00       4.335799e+00      -9.533659e-03 
      -4.331452e+00       4.337793e+00       9.533659e-03 
      -4.334275e+00       4.311001e+00       9.533659e-03 
       8.051827e-03       3.853506e+00       4.329544e+00 
       1.087450e-02       3.880297e+00       4.329544e+00 
      -8.051881e-03       3.882291e+00       4.348612e+00 
      -1.087455e-02       3.855500e+00       4.348612e+00 
      -4.310017e+00       4.321990e+00      -1.348263e-02 
      -4.321404e+00       4.342344e+00       0.000000e+00 
      -4.336783e+00       4.324810e+00       1.348263e-02 
      -4.325396e+00       4.304456e+00       0.000000e+00 
       1.338294e-02       3.866488e+00       4.325595e+00 
       1.995901e-03       3.886843e+00       4.339078e+00 
      -1.338300e-02       3.869308e+00       4.352560e+00 
      -1.995955e-03       3.848954e+00       4.339078e+00 
      -2.153648e+00       4.081256e+00       2.160005e+00 
      -2.150825e+00       4.108048e+00       2.160005e+00 
      -2.169752e+00       4.110042e+00       2.179073e+00 
      -2.172575e+00       4.083250e+00       2.179073e+00 
      -4.312525e+00      -4.335799e+00      -9.533660e-03 
      -4.315348e+00      -4.309007e+00      -9.533660e-03 
      -4.334275e+00      -4.311001e+00       9.533660e-03 
      -4.331452e+00      -4.337793e+00       9.533660e-03 
       1.087450e-02      -3.880294e+00       4.329544e+00 
       8.051815e-03      -3.853502e+00       4.329544e+00 
      -1.087456e-02      -3.855496e+00       4.348611e+00 
      -8.051869e-03      -3.882288e+00       4.348611e+00 
      -4.310017e+00      -4.321990e+00      -1.348263e-02 
      -4.325396e+00      -4.304456e+00       0.000000e+00 
      -4.336783e+00      -4.324810e+00       1.348263e-02 
      -4.321404e+00      -4.342344e+00       0.000000e+00 
       1.338294e-02      -3.866485e+00       4.325595e+00 
      -1.995970e-03      -3.848951e+00       4.339078e+00 
      -1.338299e-02      -3.869305e+00       4.352560e+00 
       1.995916e-03      -3.886839e+00       4.339078e+00 
      -2.150825e+00      -4.108046e+00       2.160005e+00 
      -2.153648e+00      -4.081255e+00       2.160005e+00 
      -2.172575e+00      -4.083249e+00       2.179072e+00 
      -2.169752e+00      -4.110040e+00       2.179072e+00 
       4.312525e+00       4.335799e+00      -9.533659e-03 
       4.315348e+00       4.309007e+00      -9.533659e-03 
       4.334275e+00       4.311001e+00       9.533659e-03 
       4.331452e+00       4.337793e+00       9.533659e-03 
      -1.087455e-02       3.880297e+00       4.329544e+00 
      -8.051881e-03       3.853506e+00       4.329544e+00 
       1.087450e-02       3.855500e+00       4.348612e+00 
       8.051827e-03       3.882291e+00       4.348612e+00 
       4.310017e+00       4.321990e+00      -1.348263e-02 
       4.325396e+00       4.304456e+00       0.000000e+00 
       4.336783e+00       4.324810e+00       1.348263e-02 
       4.321404e+00       4.342344e+00       0.000000e+00 
      -1.338300e-02       3.866488e+00       4.325595e+00 
       1.995901e-03       3.848954e+00       4.339078e+00 
       1.338294e-02       3.869308e+00       4.352560e+00 
      -1.995955e-03       3.886843e+00       4.339078e+00 
       2.150825e+00       4.108048e+00       2.160005e+00 
       2.153648e+00       4.081256e+00       2.160005e+00 
       2.172575e+00       4.083250e+00       2.179073e+00 
       2.169752e+00       4.110042e+00       2.179073e+00 
       4.335799e+00      -4.312525e+00      -9.533662e-03 
       4.309007e+00      -4.315348e+00      -9.533662e-03 
       4.311001e+00      -4.334275e+00       9.533662e-03 
       4.337793e+00      -4.331452e+00       9.533662e-03 
       3.880295e+00       1.087614e-02       4.329544e+00 
       3.853504e+00       8.053463e-03       4.329544e+00 
       3.855498e+00      -1.087291e-02       4.348611e+00 
       3.882289e+00      -8.050230e-03       4.348611e+00 
       4.321990e+00      -4.310017e+00      -1.348263e-02 
       4.304456e+00      -4.325396e+00       0.000000e+00 
       4.324810e+00      -4.336783e+00       1.348263e-02 
       4.342344e+00      -4.321404e+00       0.000000e+00 
       3.866487e+00       1.338458e-02       4.325595e+00 
       3.848952e+00      -1.994318e-03       4.339078e+00 
       3.869307e+00      -1.338135e-02       4.352560e+00 
       3.886841e+00       1.997552e-03       4.339078e+00 
       4.108047e+00      -2.150825e+00       2.160005e+00 
       4.081256e+00      -2.153647e+00       2.160005e+00 
       4.083250e+00      -2.172574e+00       2.179073e+00 
       4.110041e+00      -2.169751e+00       2.179073e+00 
       4.315348e+00      -4.309007e+00      -9.533660e-03 
       4.312525e+00      -4.335799e+00      -9.533660e-03 
       4.331452e+00      -4.337793e+00       9.533660e-03 
       4.334275e+00      -4.311001e+00       9.533660e-03 
      -8.051869e-03      -3.853502e+00       4.329544e+00 
      -1.087456e-02      -3.880294e+00       4.329544e+00 
       8.051815e-03      -3.882288e+00       4.348611e+00 
       1.087450e-02      -3.855496e+00       4.348611e+00 
       4.310017e+00      -4.321990e+00      -1.348263e-02 
       4.321404e+00      -4.342344e+00       0.000000e+00 
       4.336783e+00      -4.324810e+00       1.348263e-02 
       4.325396e+00      -4.304456e+00       0.000000e+00 
      -1.338299e-02      -3.866485e+00       4.325595e+00 
      -1.995970e-03      -3.886839e+00       4.339078e+00 
       1.338294e-02      -3.869305e+00       4.352560e+00 
       1.995916e-03      -3.848951e+00       4.339078e+00 
       2.153648e+00      -4.081255e+00       2.160005e+00 
       2.150825e+00      -4.108046e+00       2.160005e+00 
       2.169752e+00      -4.110040e+00       2.179072e+00 
       2.172575e+00      -4.083249e+00       2.179072e+00 
      -4.290298e+00      -4.323580e+00      -3.456116e-03 
      -4.323580e+00      -4.290298e+00      -3.456116e-03 
      -4.356502e+00      -4.323220e+00       3.456116e-03 
      -4.323220e+00      -4.356502e+00       3.456116e-03 
      -3.834833e+00      -3.868114e+00       4.335124e+00 
      -3.868116e+00      -3.834831e+00       4.335124e+00 
      -3.901037e+00      -3.867753e+00       4.342037e+00 
[...]
POINT_DATA     13260 
VECTORS Displacements float
       0.00000000e+00       0.00000000e+00       0.00000000e+00 
       0.00000000e+00       0.00000000e+00       0.00000000e+00 
       0.00000000e+00       0.00000000e+00       0.00000000e+00 
       0.00000000e+00       0.00000000e+00       0.00000000e+00 
       3.30584408e-06       1.61678421e-06      -1.22303672e-04 
       3.30584408e-06       1.61678421e-06      -1.22303672e-04 
       3.30584408e-06       1.61678421e-06      -1.22303672e-04 
       3.30584408e-06       1.61678421e-06      -1.22303672e-04 
       0.00000000e+00       0.00000000e+00       0.00000000e+00 
       0.00000000e+00       0.00000000e+00       0.00000000e+00 
       0.00000000e+00       0.00000000e+00       0.00000000e+00 
       0.00000000e+00       0.00000000e+00       0.00000000e+00 
       3.30584408e-06       1.61678421e-06      -1.22303672e-04 
       3.30584408e-06       1.61678421e-06      -1.22303672e-04 
       3.30584408e-06       1.61678421e-06      -1.22303672e-04 
       3.30584408e-06       1.61678421e-06      -1.22303672e-04 
       1.65292204e-06       8.08392106e-07      -6.11518362e-05 
       1.65292204e-06       8.08392106e-07      -6.11518362e-05 
       1.65292204e-06       8.08392106e-07      -6.11518362e-05 
       1.65292204e-06       8.08392106e-07      -6.11518362e-05 
       0.00000000e+00       0.00000000e+00       0.00000000e+00 
       0.00000000e+00       0.00000000e+00       0.00000000e+00 
       0.00000000e+00       0.00000000e+00       0.00000000e+00 
       0.00000000e+00       0.00000000e+00       0.00000000e+00 
      -3.35971345e-06       1.61678743e-06      -1.22309331e-04 
      -3.35971345e-06       1.61678743e-06      -1.22309331e-04 
      -3.35971345e-06       1.61678743e-06      -1.22309331e-04 
      -3.35971345e-06       1.61678743e-06      -1.22309331e-04 
       0.00000000e+00       0.00000000e+00       0.00000000e+00 
       0.00000000e+00       0.00000000e+00       0.00000000e+00 
       0.00000000e+00       0.00000000e+00       0.00000000e+00 
       0.00000000e+00       0.00000000e+00       0.00000000e+00 
      -3.35971345e-06       1.61678743e-06      -1.22309331e-04 
      -3.35971345e-06       1.61678743e-06      -1.22309331e-04 
      -3.35971345e-06       1.61678743e-06      -1.22309331e-04 
      -3.35971345e-06       1.61678743e-06      -1.22309331e-04 
      -1.67985672e-06       8.08393717e-07      -6.11546654e-05 
      -1.67985672e-06       8.08393717e-07      -6.11546654e-05 
      -1.67985672e-06       8.08393717e-07      -6.11546654e-05 
      -1.67985672e-06       8.08393717e-07      -6.11546654e-05 
       0.00000000e+00       0.00000000e+00       0.00000000e+00 
       0.00000000e+00       0.00000000e+00       0.00000000e+00 
       0.00000000e+00       0.00000000e+00       0.00000000e+00 
       0.00000000e+00       0.00000000e+00       0.00000000e+00 
       3.30584408e-06       1.61678421e-06      -1.22303672e-04 
       3.30584408e-06       1.61678421e-06      -1.22303672e-04 
       3.30584408e-06       1.61678421e-06      -1.22303672e-04 
       3.30584408e-06       1.61678421e-06      -1.22303672e-04 
       0.00000000e+00       0.00000000e+00       0.00000000e+00 
       0.00000000e+00       0.00000000e+00       0.00000000e+00 
       0.00000000e+00       0.00000000e+00       0.00000000e+00 
       0.00000000e+00       0.00000000e+00       0.00000000e+00 
       3.30584408e-06       1.61678421e-06      -1.22303672e-04 
       3.30584408e-06       1.61678421e-06      -1.22303672e-04 
       3.30584408e-06       1.61678421e-06      -1.22303672e-04 
       3.30584408e-06       1.61678421e-06      -1.22303672e-04 
       1.65292204e-06       8.08392106e-07      -6.11518362e-05 
       1.65292204e-06       8.08392106e-07      -6.11518362e-05 
       1.65292204e-06       8.08392106e-07      -6.11518362e-05 
       1.65292204e-06       8.08392106e-07      -6.11518362e-05 
       0.00000000e+00       0.00000000e+00       0.00000000e+00 
       0.00000000e+00       0.00000000e+00       0.00000000e+00 
       0.00000000e+00       0.00000000e+00       0.00000000e+00 
       0.00000000e+00       0.00000000e+00       0.00000000e+00 
      -2.69353251e-08      -1.67025421e-06      -1.22132137e-04 
      -2.69353251e-08      -1.67025421e-06      -1.22132137e-04 
      -2.69353251e-08      -1.67025421e-06      -1.22132137e-04 
      -2.69353251e-08      -1.67025421e-06      -1.22132137e-04 
       0.00000000e+00       0.00000000e+00       0.00000000e+00 
       0.00000000e+00       0.00000000e+00       0.00000000e+00 
       0.00000000e+00       0.00000000e+00       0.00000000e+00 
       0.00000000e+00       0.00000000e+00       0.00000000e+00 
      -2.69353251e-08      -1.67025421e-06      -1.22132137e-04 
      -2.69353251e-08      -1.67025421e-06      -1.22132137e-04 
      -2.69353251e-08      -1.67025421e-06      -1.22132137e-04 
      -2.69353251e-08      -1.67025421e-06      -1.22132137e-04 
      -1.34676625e-08      -8.35127106e-07      -6.10660684e-05 
      -1.34676625e-08      -8.35127106e-07      -6.10660684e-05 
      -1.34676625e-08      -8.35127106e-07      -6.10660684e-05 
      -1.34676625e-08      -8.35127106e-07      -6.10660684e-05 
       0.00000000e+00       0.00000000e+00       0.00000000e+00 
       0.00000000e+00       0.00000000e+00       0.00000000e+00 
       0.00000000e+00       0.00000000e+00       0.00000000e+00 
       0.00000000e+00       0.00000000e+00       0.00000000e+00 
      -2.69320462e-08       4.99530640e-06      -1.22480917e-04 
      -2.69320462e-08       4.99530640e-06      -1.22480917e-04 
      -2.69320462e-08       4.99530640e-06      -1.22480917e-04 
      -2.69320462e-08       4.99530640e-06      -1.22480917e-04 
       0.00000000e+00       0.00000000e+00       0.00000000e+00 
       0.00000000e+00       0.00000000e+00       0.00000000e+00 
       0.00000000e+00       0.00000000e+00       0.00000000e+00 
       0.00000000e+00       0.00000000e+00       0.00000000e+00 
      -2.69320462e-08       4.99530640e-06      -1.22480917e-04 
      -2.69320462e-08       4.99530640e-06      -1.22480917e-04 
      -2.69320462e-08       4.99530640e-06      -1.22480917e-04 
      -2.69320462e-08       4.99530640e-06      -1.22480917e-04 
      -1.34660231e-08       2.49765320e-06      -6.12404587e-05 
      -1.34660231e-08       2.49765320e-06      -6.12404587e-05 
      -1.34660231e-08       2.49765320e-06      -6.12404587e-05 
      -1.34660231e-08       2.49765320e-06      -6.12404587e-05 
       0.00000000e+00       0.00000000e+00       0.00000000e+00 
       0.00000000e+00       0.00000000e+00       0.00000000e+00 
       0.00000000e+00       0.00000000e+00       0.00000000e+00 
       0.00000000e+00       0.00000000e+00       0.00000000e+00 
      -2.69353251e-08      -1.67025421e-06      -1.22132137e-04 
      -2.69353251e-08      -1.67025421e-06      -1.22132137e-04 
      -2.69353251e-08      -1.67025421e-06      -1.22132137e-04 
      -2.69353251e-08      -1.67025421e-06      -1.22132137e-04 
       0.00000000e+00       0.00000000e+00       0.00000000e+00 
       0.00000000e+00       0.00000000e+00       0.00000000e+00 
       0.00000000e+00       0.00000000e+00       0.00000000e+00 
       0.00000000e+00       0.00000000e+00       0.00000000e+00 
      -2.69353251e-08      -1.67025421e-06      -1.22132137e-04 
      -2.69353251e-08      -1.67025421e-06      -1.22132137e-04 
      -2.69353251e-08      -1.67025421e-06      -1.22132137e-04 
      -2.69353251e-08      -1.67025421e-06      -1.22132137e-04 
      -1.34676625e-08      -8.35127106e-07      -6.10660684e-05 
      -1.34676625e-08      -8.35127106e-07      -6.10660684e-05 
      -1.34676625e-08      -8.35127106e-07      -6.10660684e-05 
      -1.34676625e-08      -8.35127106e-07      -6.10660684e-05 
       0.00000000e+00       0.00000000e+00       0.00000000e+00 
       0.00000000e+00       0.00000000e+00       0.00000000e+00 
       0.00000000e+00       0.00000000e+00       0.00000000e+00 
       0.00000000e+00       0.00000000e+00       0.00000000e+00 
      -3.35971345e-06       1.61678743e-06      -1.22309331e-04 
      -3.35971345e-06       1.61678743e-06      -1.22309331e-04 
      -3.35971345e-06       1.61678743e-06      -1.22309331e-04 
      -3.35971345e-06       1.61678743e-06      -1.22309331e-04 
       0.00000000e+00       0.00000000e+00       0.00000000e+00 
       0.00000000e+00       0.00000000e+00       0.00000000e+00 
       0.00000000e+00       0.00000000e+00       0.00000000e+00 
       0.00000000e+00       0.00000000e+00       0.00000000e+00 
      -3.35971345e-06       1.61678743e-06      -1.22309331e-04 
      -3.35971345e-06       1.61678743e-06      -1.22309331e-04 
      -3.35971345e-06       1.61678743e-06      -1.22309331e-04 
      -3.35971345e-06       1.61678743e-06      -1.22309331e-04 
      -1.67985672e-06       8.08393717e-07      -6.11546654e-05 
      -1.67985672e-06       8.08393717e-07      -6.11546654e-05 
      -1.67985672e-06       8.08393717e-07      -6.11546654e-05 
      -1.67985672e-06       8.08393717e-07      -6.11546654e-05 
       0.00000000e+00       0.00000000e+00       0.00000000e+00 
       0.00000000e+00       0.00000000e+00       0.00000000e+00 
       0.00000000e+00       0.00000000e+00       0.00000000e+00 
       0.00000000e+00       0.00000000e+00       0.00000000e+00 
      -2.69320462e-08       4.99530640e-06      -1.22480917e-04 
      -2.69320462e-08       4.99530640e-06      -1.22480917e-04 
      -2.69320462e-08       4.99530640e-06      -1.22480917e-04 
      -2.69320462e-08       4.99530640e-06      -1.22480917e-04 
       0.00000000e+00       0.00000000e+00       0.00000000e+00 
       0.00000000e+00       0.00000000e+00       0.00000000e+00 
       0.00000000e+00       0.00000000e+00       0.00000000e+00 
       0.00000000e+00       0.00000000e+00       0.00000000e+00 
      -2.69320462e-08       4.99530640e-06      -1.22480917e-04 
      -2.69320462e-08       4.99530640e-06      -1.22480917e-04 
      -2.69320462e-08       4.99530640e-06      -1.22480917e-04 
      -2.69320462e-08       4.99530640e-06      -1.22480917e-04 
      -1.34660231e-08       2.49765320e-06      -6.12404587e-05 
      -1.34660231e-08       2.49765320e-06      -6.12404587e-05 
      -1.34660231e-08       2.49765320e-06      -6.12404587e-05 
      -1.34660231e-08       2.49765320e-06      -6.12404587e-05 
       0.00000000e+00       0.00000000e+00       0.00000000e+00 
       0.00000000e+00       0.00000000e+00       0.00000000e+00 
       0.00000000e+00       0.00000000e+00       0.00000000e+00 
       0.00000000e+00       0.00000000e+00       0.00000000e+00 
      -3.53969521e-05      -3.32966471e-05      -6.19424592e-04 
      -3.53969521e-05      -3.32966471e-05      -6.19424592e-04 
      -3.53969521e-05      -3.32966471e-05      -6.19424592e-04 
      -3.53969521e-05      -3.32966471e-05      -6.19424592e-04 
       0.00000000e+00       0.00000000e+00       0.00000000e+00 
       0.00000000e+00       0.00000000e+00       0.00000000e+00 
       0.00000000e+00       0.00000000e+00       0.00000000e+00 
       0.00000000e+00       0.00000000e+00       0.00000000e+00 
      -3.53969521e-05      -3.32966471e-05      -6.19424592e-04 
      -3.53969521e-05      -3.32966471e-05      -6.19424592e-04 
      -3.53969521e-05      -3.32966471e-05      -6.19424592e-04 
      -3.53969521e-05      -3.32966471e-05      -6.19424592e-04 
      -1.76984760e-05      -1.66483236e-05      -3.09712296e-04 
      -1.76984760e-05      -1.66483236e-05      -3.09712296e-04 
      -1.76984760e-05      -1.66483236e-05      -3.09712296e-04 
      -1.76984760e-05      -1.66483236e-05      -3.09712296e-04 
       0.00000000e+00       0.00000000e+00       0.00000000e+00 
       0.00000000e+00       0.00000000e+00       0.00000000e+00 
       0.00000000e+00       0.00000000e+00       0.00000000e+00 
       0.00000000e+00       0.00000000e+00       0.00000000e+00 
       3.53262750e-05      -3.32999107e-05      -6.19492349e-04 
       3.53262750e-05      -3.32999107e-05      -6.19492349e-04 
       3.53262750e-05      -3.32999107e-05      -6.19492349e-04 
       3.53262750e-05      -3.32999107e-05      -6.19492349e-04 
       0.00000000e+00       0.00000000e+00       0.00000000e+00 
       0.00000000e+00       0.00000000e+00       0.00000000e+00 
       0.00000000e+00       0.00000000e+00       0.00000000e+00 
       0.00000000e+00       0.00000000e+00       0.00000000e+00 
       3.53262750e-05      -3.32999107e-05      -6.19492349e-04 
       3.53262750e-05      -3.32999107e-05      -6.19492349e-04 
       3.53262750e-05      -3.32999107e-05      -6.19492349e-04 
       3.53262750e-05      -3.32999107e-05      -6.19492349e-04 
       1.76631375e-05      -1.66499554e-05      -3.09746175e-04 
       1.76631375e-05      -1.66499554e-05      -3.09746175e-04 
       1.76631375e-05      -1.66499554e-05      -3.09746175e-04 
       1.76631375e-05      -1.66499554e-05      -3.09746175e-04 
       0.00000000e+00       0.00000000e+00       0.00000000e+00 
       0.00000000e+00       0.00000000e+00       0.00000000e+00 
       0.00000000e+00       0.00000000e+00       0.00000000e+00 
       0.00000000e+00       0.00000000e+00       0.00000000e+00 
       3.55026368e-05       3.74767722e-05      -6.26377762e-04 
       3.55026368e-05       3.74767722e-05      -6.26377762e-04 
       3.55026368e-05       3.74767722e-05      -6.26377762e-04 
       3.55026368e-05       3.74767722e-05      -6.26377762e-04 
       0.00000000e+00       0.00000000e+00       0.00000000e+00 
       0.00000000e+00       0.00000000e+00       0.00000000e+00 
       0.00000000e+00       0.00000000e+00       0.00000000e+00 
       0.00000000e+00       0.00000000e+00       0.00000000e+00 
       3.55026368e-05       3.74767722e-05      -6.26377762e-04 
       3.55026368e-05       3.74767722e-05      -6.26377762e-04 
       3.55026368e-05       3.74767722e-05      -6.26377762e-04 
       3.55026368e-05       3.74767722e-05      -6.26377762e-04 
       1.77513184e-05       1.87383861e-05      -3.13188881e-04 
       1.77513184e-05       1.87383861e-05      -3.13188881e-04 
       1.77513184e-05       1.87383861e-05      -3.13188881e-04 
       1.77513184e-05       1.87383861e-05      -3.13188881e-04 
       0.00000000e+00       0.00000000e+00       0.00000000e+00 
       0.00000000e+00       0.00000000e+00       0.00000000e+00 
       0.00000000e+00       0.00000000e+00       0.00000000e+00 
       0.00000000e+00       0.00000000e+00       0.00000000e+00 
      -3.55733226e-05       3.74735003e-05      -6.26310006e-04 
      -3.55733226e-05       3.74735003e-05      -6.26310006e-04 
      -3.55733226e-05       3.74735003e-05      -6.26310006e-04 
      -3.55733226e-05       3.74735003e-05      -6.26310006e-04 
       0.00000000e+00       0.00000000e+00       0.00000000e+00 
       0.00000000e+00       0.00000000e+00       0.00000000e+00 
       0.00000000e+00       0.00000000e+00       0.00000000e+00 
       0.00000000e+00       0.00000000e+00       0.00000000e+00 
      -3.55733226e-05       3.74735003e-05      -6.26310006e-04 
      -3.55733226e-05       3.74735003e-05      -6.26310006e-04 
      -3.55733226e-05       3.74735003e-05      -6.26310006e-04 
      -3.55733226e-05       3.74735003e-05      -6.26310006e-04 
      -1.77866613e-05       1.87367502e-05      -3.13155003e-04 
      -1.77866613e-05       1.87367502e-05      -3.13155003e-04 
      -1.77866613e-05       1.87367502e-05      -3.13155003e-04 
      -1.77866613e-05       1.87367502e-05      -3.13155003e-04 
       3.30584408e-06       1.61678421e-06      -1.22303672e-04 
       3.30584408e-06       1.61678421e-06      -1.22303672e-04 
       3.30584408e-06       1.61678421e-06      -1.22303672e-04 
       3.30584408e-06       1.61678421e-06      -1.22303672e-04 
      -3.55733226e-05       3.74735003e-05      -6.26310006e-04 
      -3.55733226e-05       3.74735003e-05      -6.26310006e-04 
      -3.55733226e-05       3.74735003e-05      -6.26310006e-04 
      -3.55733226e-05       3.74735003e-05      -6.26310006e-04 
       3.30584408e-06       1.61678421e-06      -1.22303672e-04 
       3.30584408e-06       1.61678421e-06      -1.22303672e-04 
       3.30584408e-06       1.61678421e-06      -1.22303672e-04 
       3.30584408e-06       1.61678421e-06      -1.22303672e-04 
      -3.55733226e-05       3.74735003e-05      -6.26310006e-04 
      -3.55733226e-05       3.74735003e-05      -6.26310006e-04 
      -3.55733226e-05       3.74735003e-05      -6.26310006e-04 
      -3.55733226e-05       3.74735003e-05      -6.26310006e-04 
      -1.61337393e-05       1.95451423e-05      -3.74306839e-04 
      -1.61337393e-05       1.95451423e-05      -3.74306839e-04 
      -1.61337393e-05       1.95451423e-05      -3.74306839e-04 
      -1.61337393e-05       1.95451423e-05      -3.74306839e-04 
       3.30584408e-06       1.61678421e-06      -1.22303672e-04 
       3.30584408e-06       1.61678421e-06      -1.22303672e-04 
       3.30584408e-06       1.61678421e-06      -1.22303672e-04 
       3.30584408e-06       1.61678421e-06      -1.22303672e-04 
      -3.53969521e-05      -3.32966471e-05      -6.19424592e-04 
      -3.53969521e-05      -3.32966471e-05      -6.19424592e-04 
      -3.53969521e-05      -3.32966471e-05      -6.19424592e-04 
      -3.53969521e-05      -3.32966471e-05      -6.19424592e-04 
       3.30584408e-06       1.61678421e-06      -1.22303672e-04 
       3.30584408e-06       1.61678421e-06      -1.22303672e-04 
       3.30584408e-06       1.61678421e-06      -1.22303672e-04 
       3.30584408e-06       1.61678421e-06      -1.22303672e-04 
      -3.53969521e-05      -3.32966471e-05      -6.19424592e-04 
      -3.53969521e-05      -3.32966471e-05      -6.19424592e-04 
      -3.53969521e-05      -3.32966471e-05      -6.19424592e-04 
      -3.53969521e-05      -3.32966471e-05      -6.19424592e-04 
      -1.60455540e-05      -1.58399315e-05      -3.70864132e-04 
      -1.60455540e-05      -1.58399315e-05      -3.70864132e-04 
      -1.60455540e-05      -1.58399315e-05      -3.70864132e-04 
      -1.60455540e-05      -1.58399315e-05      -3.70864132e-04 
      -3.35971345e-06       1.61678743e-06      -1.22309331e-04 
      -3.35971345e-06       1.61678743e-06      -1.22309331e-04 
      -3.35971345e-06       1.61678743e-06      -1.22309331e-04 
      -3.35971345e-06       1.61678743e-06      -1.22309331e-04 
       3.55026368e-05       3.74767722e-05      -6.26377762e-04 
       3.55026368e-05       3.74767722e-05      -6.26377762e-04 
       3.55026368e-05       3.74767722e-05      -6.26377762e-04 
       3.55026368e-05       3.74767722e-05      -6.26377762e-04 
      -3.35971345e-06       1.61678743e-06      -1.22309331e-04 
      -3.35971345e-06       1.61678743e-06      -1.22309331e-04 
      -3.35971345e-06       1.61678743e-06      -1.22309331e-04 
      -3.35971345e-06       1.61678743e-06      -1.22309331e-04 
       3.55026368e-05       3.74767722e-05      -6.26377762e-04 
       3.55026368e-05       3.74767722e-05      -6.26377762e-04 
       3.55026368e-05       3.74767722e-05      -6.26377762e-04 
       3.55026368e-05       3.74767722e-05      -6.26377762e-04 
       1.60714617e-05       1.95467798e-05      -3.74343547e-04 
       1.60714617e-05       1.95467798e-05      -3.74343547e-04 
       1.60714617e-05       1.95467798e-05      -3.74343547e-04 
       1.60714617e-05       1.95467798e-05      -3.74343547e-04 
      -3.35971345e-06       1.61678743e-06      -1.22309331e-04 
      -3.35971345e-06       1.61678743e-06      -1.22309331e-04 
      -3.35971345e-06       1.61678743e-06      -1.22309331e-04 
      -3.35971345e-06       1.61678743e-06      -1.22309331e-04 
      -2.69320462e-08       4.99530640e-06      -1.22480917e-04 
      -2.69320462e-08       4.99530640e-06      -1.22480917e-04 