# vtk DataFile Version 2.0
./output/Static_Tower/Static_Tower_0006.vtk
ASCII
DATASET UNSTRUCTURED_GRID

POINTS 13260 float
      -4.335799e+00       4.312526e+00      -9.534082e-03 
      -4.309007e+00       4.315349e+00      -9.534082e-03 
      -4.311001e+00       4.334274e+00       9.534082e-03 
      -4.337793e+00       4.331451e+00       9.534082e-03 
      -3.880285e+00      -1.086476e-02       4.329151e+00 
      -3.853493e+00      -8.042011e-03       4.329151e+00 
      -3.855487e+00       1.088352e-02       4.348219e+00 
      -3.882279e+00       8.060768e-03       4.348219e+00 
      -4.321990e+00       4.310018e+00      -1.348323e-02 
      -4.304456e+00       4.325396e+00       0.000000e+00 
      -4.324810e+00       4.336782e+00       1.348323e-02 
      -4.342344e+00       4.321404e+00       0.000000e+00 
      -3.866476e+00      -1.337299e-02       4.325202e+00 
      -3.848942e+00       2.005364e-03       4.338685e+00 
      -3.869296e+00       1.339175e-02       4.352168e+00 
      -3.886830e+00      -1.986607e-03       4.338685e+00 
      -4.108042e+00       2.150831e+00       2.159808e+00 
      -4.081250e+00       2.153653e+00       2.159808e+00 
      -4.083244e+00       2.172579e+00       2.178877e+00 
      -4.110036e+00       2.169756e+00       2.178877e+00 
       4.309007e+00       4.315349e+00      -9.534082e-03 
       4.335799e+00       4.312526e+00      -9.534082e-03 
       4.337793e+00       4.331451e+00       9.534082e-03 
       4.311001e+00       4.334274e+00       9.534082e-03 
       3.853493e+00      -8.042010e-03       4.329151e+00 
       3.880285e+00      -1.086476e-02       4.329151e+00 
       3.882279e+00       8.060767e-03       4.348219e+00 
       3.855487e+00       1.088352e-02       4.348219e+00 
       4.321990e+00       4.310018e+00      -1.348323e-02 
       4.342344e+00       4.321404e+00       0.000000e+00 
       4.324810e+00       4.336782e+00       1.348323e-02 
       4.304456e+00       4.325396e+00       0.000000e+00 
       3.866476e+00      -1.337299e-02       4.325202e+00 
       3.886830e+00      -1.986608e-03       4.338685e+00 
       3.869296e+00       1.339175e-02       4.352168e+00 
       3.848941e+00       2.005365e-03       4.338685e+00 
       4.081250e+00       2.153653e+00       2.159808e+00 
       4.108042e+00       2.150831e+00       2.159808e+00 
       4.110036e+00       2.169756e+00       2.178877e+00 
       4.083244e+00       2.172579e+00       2.178877e+00 
      -4.309007e+00      -4.315349e+00      -9.534102e-03 
      -4.335799e+00      -4.312526e+00      -9.534102e-03 
      -4.337793e+00      -4.331451e+00       9.534102e-03 
      -4.311001e+00      -4.334274e+00       9.534102e-03 
      -3.853493e+00       8.060754e-03       4.329151e+00 
      -3.880285e+00       1.088349e-02       4.329151e+00 
      -3.882279e+00      -8.041998e-03       4.348219e+00 
      -3.855487e+00      -1.086474e-02       4.348219e+00 
      -4.321990e+00      -4.310018e+00      -1.348326e-02 
      -4.342344e+00      -4.321404e+00       0.000000e+00 
      -4.324810e+00      -4.336782e+00       1.348326e-02 
      -4.304456e+00      -4.325396e+00       0.000000e+00 
      -3.866476e+00       1.339172e-02       4.325202e+00 
      -3.886830e+00       2.005355e-03       4.338685e+00 
      -3.869296e+00      -1.337296e-02       4.352168e+00 
      -3.848942e+00      -1.986599e-03       4.338685e+00 
      -4.081250e+00      -2.153644e+00       2.159808e+00 
      -4.108042e+00      -2.150821e+00       2.159808e+00 
      -4.110036e+00      -2.169747e+00       2.178877e+00 
      -4.083244e+00      -2.172569e+00       2.178877e+00 
      -4.315349e+00       4.309007e+00      -9.534089e-03 
      -4.312526e+00       4.335799e+00      -9.534089e-03 
      -4.331451e+00       4.337793e+00       9.534089e-03 
      -4.334274e+00       4.311001e+00       9.534089e-03 
       8.051293e-03       3.853503e+00       4.329152e+00 
       1.087398e-02       3.880294e+00       4.329152e+00 
      -8.051539e-03       3.882288e+00       4.348220e+00 
      -1.087423e-02       3.855497e+00       4.348220e+00 
      -4.310018e+00       4.321990e+00      -1.348324e-02 
      -4.321404e+00       4.342344e+00       0.000000e+00 
      -4.336782e+00       4.324810e+00       1.348324e-02 
      -4.325396e+00       4.304456e+00       0.000000e+00 
       1.338224e-02       3.866486e+00       4.325203e+00 
       1.995817e-03       3.886840e+00       4.338686e+00 
      -1.338249e-02       3.869306e+00       4.352169e+00 
      -1.996063e-03       3.848951e+00       4.338686e+00 
      -2.153649e+00       4.081255e+00       2.159809e+00 
      -2.150826e+00       4.108047e+00       2.159809e+00 
      -2.169751e+00       4.110040e+00       2.178877e+00 
      -2.172574e+00       4.083249e+00       2.178877e+00 
      -4.312526e+00      -4.335799e+00      -9.534094e-03 
      -4.315349e+00      -4.309007e+00      -9.534094e-03 
      -4.334274e+00      -4.311001e+00       9.534094e-03 
      -4.331451e+00      -4.337793e+00       9.534094e-03 
       1.087403e-02      -3.880275e+00       4.329150e+00 
       8.051225e-03      -3.853484e+00       4.329150e+00 
      -1.087428e-02      -3.855478e+00       4.348218e+00 
      -8.051471e-03      -3.882269e+00       4.348218e+00 
      -4.310018e+00      -4.321990e+00      -1.348324e-02 
      -4.325396e+00      -4.304456e+00       0.000000e+00 
      -4.336782e+00      -4.324810e+00       1.348324e-02 
      -4.321404e+00      -4.342344e+00       0.000000e+00 
       1.338223e-02      -3.866466e+00       4.325201e+00 
      -1.996147e-03      -3.848932e+00       4.338684e+00 
      -1.338247e-02      -3.869286e+00       4.352167e+00 
       1.995901e-03      -3.886821e+00       4.338684e+00 
      -2.150826e+00      -4.108037e+00       2.159808e+00 
      -2.153649e+00      -4.081245e+00       2.159808e+00 
      -2.172574e+00      -4.083239e+00       2.178876e+00 
      -2.169751e+00      -4.110031e+00       2.178876e+00 
       4.312526e+00       4.335799e+00      -9.534090e-03 
       4.315349e+00       4.309007e+00      -9.534090e-03 
       4.334274e+00       4.311001e+00       9.534090e-03 
       4.331451e+00       4.337793e+00       9.534090e-03 
      -1.087422e-02       3.880294e+00       4.329152e+00 
      -8.051539e-03       3.853503e+00       4.329152e+00 
       1.087398e-02       3.855497e+00       4.348220e+00 
       8.051293e-03       3.882288e+00       4.348220e+00 
       4.310018e+00       4.321990e+00      -1.348324e-02 
       4.325396e+00       4.304456e+00       0.000000e+00 
       4.336782e+00       4.324810e+00       1.348324e-02 
       4.321404e+00       4.342344e+00       0.000000e+00 
      -1.338249e-02       3.866486e+00       4.325203e+00 
       1.995817e-03       3.848951e+00       4.338686e+00 
       1.338224e-02       3.869306e+00       4.352169e+00 
      -1.996063e-03       3.886840e+00       4.338686e+00 
       2.150826e+00       4.108047e+00       2.159809e+00 
       2.153649e+00       4.081255e+00       2.159809e+00 
       2.172574e+00       4.083249e+00       2.178877e+00 
       2.169751e+00       4.110040e+00       2.178877e+00 
       4.335799e+00      -4.312526e+00      -9.534102e-03 
       4.309007e+00      -4.315349e+00      -9.534102e-03 
       4.311001e+00      -4.334274e+00       9.534102e-03 
       4.337793e+00      -4.331451e+00       9.534102e-03 
       3.880285e+00       1.088349e-02       4.329151e+00 
       3.853493e+00       8.060753e-03       4.329151e+00 
       3.855487e+00      -1.086474e-02       4.348219e+00 
       3.882279e+00      -8.041997e-03       4.348219e+00 
       4.321990e+00      -4.310018e+00      -1.348326e-02 
       4.304456e+00      -4.325396e+00       0.000000e+00 
       4.324810e+00      -4.336782e+00       1.348326e-02 
       4.342344e+00      -4.321404e+00       0.000000e+00 
       3.866476e+00       1.339172e-02       4.325202e+00 
       3.848941e+00      -1.986600e-03       4.338685e+00 
       3.869296e+00      -1.337296e-02       4.352168e+00 
       3.886830e+00       2.005357e-03       4.338685e+00 
       4.108042e+00      -2.150821e+00       2.159808e+00 
       4.081250e+00      -2.153644e+00       2.159808e+00 
       4.083244e+00      -2.172569e+00       2.178877e+00 
       4.110036e+00      -2.169747e+00       2.178877e+00 
       4.315349e+00      -4.309007e+00      -9.534094e-03 
       4.312526e+00      -4.335799e+00      -9.534094e-03 
       4.331451e+00      -4.337793e+00       9.534094e-03 
       4.334274e+00      -4.311001e+00       9.534094e-03 
      -8.051471e-03      -3.853484e+00       4.329150e+00 
      -1.087428e-02      -3.880275e+00       4.329150e+00 
       8.051225e-03      -3.882269e+00       4.348218e+00 
       1.087403e-02      -3.855478e+00       4.348218e+00 
       4.310018e+00      -4.321990e+00      -1.348325e-02 
       4.321404e+00      -4.342344e+00       0.000000e+00 
       4.336782e+00      -4.324810e+00       1.348325e-02 
       4.325396e+00      -4.304456e+00       0.000000e+00 
      -1.338247e-02      -3.866466e+00       4.325201e+00 
      -1.996147e-03      -3.886821e+00       4.338684e+00 
       1.338223e-02      -3.869286e+00       4.352167e+00 
       1.995901e-03      -3.848932e+00       4.338684e+00 
       2.153649e+00      -4.081245e+00       2.159808e+00 
       2.150826e+00      -4.108037e+00       2.159808e+00 
       2.169751e+00      -4.110031e+00       2.178876e+00 
       2.172574e+00      -4.083239e+00       2.178876e+00 
      -4.290298e+00      -4.323580e+00      -3.457045e-03 
      -4.323581e+00      -4.290298e+00      -3.457045e-03 
      -4.356502e+00      -4.323220e+00       3.457045e-03 
      -4.323219e+00      -4.356502e+00       3.457045e-03 
      -3.834949e+00      -3.868219e+00       4.332878e+00 
      -3.868232e+00      -3.834937e+00       4.332878e+00 
      -3.901153e+00      -3.867859e+00       4.339792e+00 
[...]
POINT_DATA     13260 
VECTORS Displacements float
       0.00000000e+00       0.00000000e+00       0.00000000e+00 
       0.00000000e+00       0.00000000e+00       0.00000000e+00 
       0.00000000e+00       0.00000000e+00       0.00000000e+00 
       0.00000000e+00       0.00000000e+00       0.00000000e+00 
       1.39107526e-05       9.37824524e-06      -5.15129512e-04 
       1.39107526e-05       9.37824524e-06      -5.15129512e-04 
       1.39107526e-05       9.37824524e-06      -5.15129512e-04 
       1.39107526e-05       9.37824524e-06      -5.15129512e-04 
       0.00000000e+00       0.00000000e+00       0.00000000e+00 
       0.00000000e+00       0.00000000e+00       0.00000000e+00 
       0.00000000e+00       0.00000000e+00       0.00000000e+00 
       0.00000000e+00       0.00000000e+00       0.00000000e+00 
       1.39107526e-05       9.37824524e-06      -5.15129512e-04 
       1.39107526e-05       9.37824524e-06      -5.15129512e-04 
       1.39107526e-05       9.37824524e-06      -5.15129512e-04 
       1.39107526e-05       9.37824524e-06      -5.15129512e-04 
       6.95537628e-06       4.68912262e-06      -2.57564756e-04 
       6.95537628e-06       4.68912262e-06      -2.57564756e-04 
       6.95537628e-06       4.68912262e-06      -2.57564756e-04 
       6.95537628e-06       4.68912262e-06      -2.57564756e-04 
       0.00000000e+00       0.00000000e+00       0.00000000e+00 
       0.00000000e+00       0.00000000e+00       0.00000000e+00 
       0.00000000e+00       0.00000000e+00       0.00000000e+00 
       0.00000000e+00       0.00000000e+00       0.00000000e+00 
      -1.41569207e-05       9.37833014e-06      -5.15155423e-04 
      -1.41569207e-05       9.37833014e-06      -5.15155423e-04 
      -1.41569207e-05       9.37833014e-06      -5.15155423e-04 
      -1.41569207e-05       9.37833014e-06      -5.15155423e-04 
       0.00000000e+00       0.00000000e+00       0.00000000e+00 
       0.00000000e+00       0.00000000e+00       0.00000000e+00 
       0.00000000e+00       0.00000000e+00       0.00000000e+00 
       0.00000000e+00       0.00000000e+00       0.00000000e+00 
      -1.41569207e-05       9.37833014e-06      -5.15155423e-04 
      -1.41569207e-05       9.37833014e-06      -5.15155423e-04 
      -1.41569207e-05       9.37833014e-06      -5.15155423e-04 
      -1.41569207e-05       9.37833014e-06      -5.15155423e-04 
      -7.07846036e-06       4.68916507e-06      -2.57577711e-04 
      -7.07846036e-06       4.68916507e-06      -2.57577711e-04 
      -7.07846036e-06       4.68916507e-06      -2.57577711e-04 
      -7.07846036e-06       4.68916507e-06      -2.57577711e-04 
       0.00000000e+00       0.00000000e+00       0.00000000e+00 
       0.00000000e+00       0.00000000e+00       0.00000000e+00 
       0.00000000e+00       0.00000000e+00       0.00000000e+00 
       0.00000000e+00       0.00000000e+00       0.00000000e+00 
       1.39107526e-05       9.37824524e-06      -5.15129512e-04 
       1.39107526e-05       9.37824524e-06      -5.15129512e-04 
       1.39107526e-05       9.37824524e-06      -5.15129512e-04 
       1.39107526e-05       9.37824524e-06      -5.15129512e-04 
       0.00000000e+00       0.00000000e+00       0.00000000e+00 
       0.00000000e+00       0.00000000e+00       0.00000000e+00 
       0.00000000e+00       0.00000000e+00       0.00000000e+00 
       0.00000000e+00       0.00000000e+00       0.00000000e+00 
       1.39107526e-05       9.37824524e-06      -5.15129512e-04 
       1.39107526e-05       9.37824524e-06      -5.15129512e-04 
       1.39107526e-05       9.37824524e-06      -5.15129512e-04 
       1.39107526e-05       9.37824524e-06      -5.15129512e-04 
       6.95537628e-06       4.68912262e-06      -2.57564756e-04 
       6.95537628e-06       4.68912262e-06      -2.57564756e-04 
       6.95537628e-06       4.68912262e-06      -2.57564756e-04 
       6.95537628e-06       4.68912262e-06      -2.57564756e-04 
       0.00000000e+00       0.00000000e+00       0.00000000e+00 
       0.00000000e+00       0.00000000e+00       0.00000000e+00 
       0.00000000e+00       0.00000000e+00       0.00000000e+00 
       0.00000000e+00       0.00000000e+00       0.00000000e+00 
      -1.23110827e-07      -4.38033939e-06      -5.14132359e-04 
      -1.23110827e-07      -4.38033939e-06      -5.14132359e-04 
      -1.23110827e-07      -4.38033939e-06      -5.14132359e-04 
      -1.23110827e-07      -4.38033939e-06      -5.14132359e-04 
       0.00000000e+00       0.00000000e+00       0.00000000e+00 
       0.00000000e+00       0.00000000e+00       0.00000000e+00 
       0.00000000e+00       0.00000000e+00       0.00000000e+00 
       0.00000000e+00       0.00000000e+00       0.00000000e+00 
      -1.23110827e-07      -4.38033939e-06      -5.14132359e-04 
      -1.23110827e-07      -4.38033939e-06      -5.14132359e-04 
      -1.23110827e-07      -4.38033939e-06      -5.14132359e-04 
      -1.23110827e-07      -4.38033939e-06      -5.14132359e-04 
      -6.15554137e-08      -2.19016970e-06      -2.57066180e-04 
      -6.15554137e-08      -2.19016970e-06      -2.57066180e-04 
      -6.15554137e-08      -2.19016970e-06      -2.57066180e-04 
      -6.15554137e-08      -2.19016970e-06      -2.57066180e-04 
       0.00000000e+00       0.00000000e+00       0.00000000e+00 
       0.00000000e+00       0.00000000e+00       0.00000000e+00 
       0.00000000e+00       0.00000000e+00       0.00000000e+00 
       0.00000000e+00       0.00000000e+00       0.00000000e+00 
      -1.23018406e-07       2.36873209e-05      -5.16152396e-04 
      -1.23018406e-07       2.36873209e-05      -5.16152396e-04 
      -1.23018406e-07       2.36873209e-05      -5.16152396e-04 
      -1.23018406e-07       2.36873209e-05      -5.16152396e-04 
       0.00000000e+00       0.00000000e+00       0.00000000e+00 
       0.00000000e+00       0.00000000e+00       0.00000000e+00 
       0.00000000e+00       0.00000000e+00       0.00000000e+00 
       0.00000000e+00       0.00000000e+00       0.00000000e+00 
      -1.23018406e-07       2.36873209e-05      -5.16152396e-04 
      -1.23018406e-07       2.36873209e-05      -5.16152396e-04 
      -1.23018406e-07       2.36873209e-05      -5.16152396e-04 
      -1.23018406e-07       2.36873209e-05      -5.16152396e-04 
      -6.15092031e-08       1.18436604e-05      -2.58076198e-04 
      -6.15092031e-08       1.18436604e-05      -2.58076198e-04 
      -6.15092031e-08       1.18436604e-05      -2.58076198e-04 
      -6.15092031e-08       1.18436604e-05      -2.58076198e-04 
       0.00000000e+00       0.00000000e+00       0.00000000e+00 
       0.00000000e+00       0.00000000e+00       0.00000000e+00 
       0.00000000e+00       0.00000000e+00       0.00000000e+00 
       0.00000000e+00       0.00000000e+00       0.00000000e+00 
      -1.23110827e-07      -4.38033939e-06      -5.14132359e-04 
      -1.23110827e-07      -4.38033939e-06      -5.14132359e-04 
      -1.23110827e-07      -4.38033939e-06      -5.14132359e-04 
      -1.23110827e-07      -4.38033939e-06      -5.14132359e-04 
       0.00000000e+00       0.00000000e+00       0.00000000e+00 
       0.00000000e+00       0.00000000e+00       0.00000000e+00 
       0.00000000e+00       0.00000000e+00       0.00000000e+00 
       0.00000000e+00       0.00000000e+00       0.00000000e+00 
      -1.23110827e-07      -4.38033939e-06      -5.14132359e-04 
      -1.23110827e-07      -4.38033939e-06      -5.14132359e-04 
      -1.23110827e-07      -4.38033939e-06      -5.14132359e-04 
      -1.23110827e-07      -4.38033939e-06      -5.14132359e-04 
      -6.15554137e-08      -2.19016970e-06      -2.57066180e-04 
      -6.15554137e-08      -2.19016970e-06      -2.57066180e-04 
      -6.15554137e-08      -2.19016970e-06      -2.57066180e-04 
      -6.15554137e-08      -2.19016970e-06      -2.57066180e-04 
       0.00000000e+00       0.00000000e+00       0.00000000e+00 
       0.00000000e+00       0.00000000e+00       0.00000000e+00 
       0.00000000e+00       0.00000000e+00       0.00000000e+00 
       0.00000000e+00       0.00000000e+00       0.00000000e+00 
      -1.41569207e-05       9.37833014e-06      -5.15155423e-04 
      -1.41569207e-05       9.37833014e-06      -5.15155423e-04 
      -1.41569207e-05       9.37833014e-06      -5.15155423e-04 
      -1.41569207e-05       9.37833014e-06      -5.15155423e-04 
       0.00000000e+00       0.00000000e+00       0.00000000e+00 
       0.00000000e+00       0.00000000e+00       0.00000000e+00 
       0.00000000e+00       0.00000000e+00       0.00000000e+00 
       0.00000000e+00       0.00000000e+00       0.00000000e+00 
      -1.41569207e-05       9.37833014e-06      -5.15155423e-04 
      -1.41569207e-05       9.37833014e-06      -5.15155423e-04 
      -1.41569207e-05       9.37833014e-06      -5.15155423e-04 
      -1.41569207e-05       9.37833014e-06      -5.15155423e-04 
      -7.07846036e-06       4.68916507e-06      -2.57577711e-04 
      -7.07846036e-06       4.68916507e-06      -2.57577711e-04 
      -7.07846036e-06       4.68916507e-06      -2.57577711e-04 
      -7.07846036e-06       4.68916507e-06      -2.57577711e-04 
       0.00000000e+00       0.00000000e+00       0.00000000e+00 
       0.00000000e+00       0.00000000e+00       0.00000000e+00 
       0.00000000e+00       0.00000000e+00       0.00000000e+00 
       0.00000000e+00       0.00000000e+00       0.00000000e+00 
      -1.23018406e-07       2.36873209e-05      -5.16152396e-04 
      -1.23018406e-07       2.36873209e-05      -5.16152396e-04 
      -1.23018406e-07       2.36873209e-05      -5.16152396e-04 
      -1.23018406e-07       2.36873209e-05      -5.16152396e-04 
       0.00000000e+00       0.00000000e+00       0.00000000e+00 
       0.00000000e+00       0.00000000e+00       0.00000000e+00 
       0.00000000e+00       0.00000000e+00       0.00000000e+00 
       0.00000000e+00       0.00000000e+00       0.00000000e+00 
      -1.23018406e-07       2.36873209e-05      -5.16152396e-04 
      -1.23018406e-07       2.36873209e-05      -5.16152396e-04 
      -1.23018406e-07       2.36873209e-05      -5.16152396e-04 
      -1.23018406e-07       2.36873209e-05      -5.16152396e-04 
      -6.15092031e-08       1.18436604e-05      -2.58076198e-04 
      -6.15092031e-08       1.18436604e-05      -2.58076198e-04 
      -6.15092031e-08       1.18436604e-05      -2.58076198e-04 
      -6.15092031e-08       1.18436604e-05      -2.58076198e-04 
       0.00000000e+00       0.00000000e+00       0.00000000e+00 
       0.00000000e+00       0.00000000e+00       0.00000000e+00 
       0.00000000e+00       0.00000000e+00       0.00000000e+00 
       0.00000000e+00       0.00000000e+00       0.00000000e+00 
      -1.50968900e-04      -1.39163869e-04      -2.86454542e-03 
      -1.50968900e-04      -1.39163869e-04      -2.86454542e-03 
      -1.50968900e-04      -1.39163869e-04      -2.86454542e-03 
      -1.50968900e-04      -1.39163869e-04      -2.86454542e-03 
       0.00000000e+00       0.00000000e+00       0.00000000e+00 
       0.00000000e+00       0.00000000e+00       0.00000000e+00 
       0.00000000e+00       0.00000000e+00       0.00000000e+00 
       0.00000000e+00       0.00000000e+00       0.00000000e+00 
      -1.50968900e-04      -1.39163869e-04      -2.86454542e-03 
      -1.50968900e-04      -1.39163869e-04      -2.86454542e-03 
      -1.50968900e-04      -1.39163869e-04      -2.86454542e-03 
      -1.50968900e-04      -1.39163869e-04      -2.86454542e-03 
      -7.54844499e-05      -6.95819347e-05      -1.43227271e-03 
      -7.54844499e-05      -6.95819347e-05      -1.43227271e-03 
      -7.54844499e-05      -6.95819347e-05      -1.43227271e-03 
      -7.54844499e-05      -6.95819347e-05      -1.43227271e-03 
       0.00000000e+00       0.00000000e+00       0.00000000e+00 
       0.00000000e+00       0.00000000e+00       0.00000000e+00 
       0.00000000e+00       0.00000000e+00       0.00000000e+00 
       0.00000000e+00       0.00000000e+00       0.00000000e+00 
       1.50645928e-04      -1.39177439e-04      -2.86485331e-03 
       1.50645928e-04      -1.39177439e-04      -2.86485331e-03 
       1.50645928e-04      -1.39177439e-04      -2.86485331e-03 
       1.50645928e-04      -1.39177439e-04      -2.86485331e-03 
       0.00000000e+00       0.00000000e+00       0.00000000e+00 
       0.00000000e+00       0.00000000e+00       0.00000000e+00 
       0.00000000e+00       0.00000000e+00       0.00000000e+00 
       0.00000000e+00       0.00000000e+00       0.00000000e+00 
       1.50645928e-04      -1.39177439e-04      -2.86485331e-03 
       1.50645928e-04      -1.39177439e-04      -2.86485331e-03 
       1.50645928e-04      -1.39177439e-04      -2.86485331e-03 
       1.50645928e-04      -1.39177439e-04      -2.86485331e-03 
       7.53229639e-05      -6.95887195e-05      -1.43242665e-03 
       7.53229639e-05      -6.95887195e-05      -1.43242665e-03 
       7.53229639e-05      -6.95887195e-05      -1.43242665e-03 
       7.53229639e-05      -6.95887195e-05      -1.43242665e-03 
       0.00000000e+00       0.00000000e+00       0.00000000e+00 
       0.00000000e+00       0.00000000e+00       0.00000000e+00 
       0.00000000e+00       0.00000000e+00       0.00000000e+00 
       0.00000000e+00       0.00000000e+00       0.00000000e+00 
       1.51499099e-04       1.63371807e-04      -2.90709131e-03 
       1.51499099e-04       1.63371807e-04      -2.90709131e-03 
       1.51499099e-04       1.63371807e-04      -2.90709131e-03 
       1.51499099e-04       1.63371807e-04      -2.90709131e-03 
       0.00000000e+00       0.00000000e+00       0.00000000e+00 
       0.00000000e+00       0.00000000e+00       0.00000000e+00 
       0.00000000e+00       0.00000000e+00       0.00000000e+00 
       0.00000000e+00       0.00000000e+00       0.00000000e+00 
       1.51499099e-04       1.63371807e-04      -2.90709131e-03 
       1.51499099e-04       1.63371807e-04      -2.90709131e-03 
       1.51499099e-04       1.63371807e-04      -2.90709131e-03 
       1.51499099e-04       1.63371807e-04      -2.90709131e-03 
       7.57495494e-05       8.16859034e-05      -1.45354565e-03 
       7.57495494e-05       8.16859034e-05      -1.45354565e-03 
       7.57495494e-05       8.16859034e-05      -1.45354565e-03 
       7.57495494e-05       8.16859034e-05      -1.45354565e-03 
       0.00000000e+00       0.00000000e+00       0.00000000e+00 
       0.00000000e+00       0.00000000e+00       0.00000000e+00 
       0.00000000e+00       0.00000000e+00       0.00000000e+00 
       0.00000000e+00       0.00000000e+00       0.00000000e+00 
      -1.51822322e-04       1.63358023e-04      -2.90678342e-03 
      -1.51822322e-04       1.63358023e-04      -2.90678342e-03 
      -1.51822322e-04       1.63358023e-04      -2.90678342e-03 
      -1.51822322e-04       1.63358023e-04      -2.90678342e-03 
       0.00000000e+00       0.00000000e+00       0.00000000e+00 
       0.00000000e+00       0.00000000e+00       0.00000000e+00 
       0.00000000e+00       0.00000000e+00       0.00000000e+00 
       0.00000000e+00       0.00000000e+00       0.00000000e+00 
      -1.51822322e-04       1.63358023e-04      -2.90678342e-03 
      -1.51822322e-04       1.63358023e-04      -2.90678342e-03 
      -1.51822322e-04       1.63358023e-04      -2.90678342e-03 
      -1.51822322e-04       1.63358023e-04      -2.90678342e-03 
      -7.59111610e-05       8.16790113e-05      -1.45339171e-03 
      -7.59111610e-05       8.16790113e-05      -1.45339171e-03 
      -7.59111610e-05       8.16790113e-05      -1.45339171e-03 
      -7.59111610e-05       8.16790113e-05      -1.45339171e-03 
       1.39107526e-05       9.37824524e-06      -5.15129512e-04 
       1.39107526e-05       9.37824524e-06      -5.15129512e-04 
       1.39107526e-05       9.37824524e-06      -5.15129512e-04 
       1.39107526e-05       9.37824524e-06      -5.15129512e-04 
      -1.51822322e-04       1.63358023e-04      -2.90678342e-03 
      -1.51822322e-04       1.63358023e-04      -2.90678342e-03 
      -1.51822322e-04       1.63358023e-04      -2.90678342e-03 
      -1.51822322e-04       1.63358023e-04      -2.90678342e-03 
       1.39107526e-05       9.37824524e-06      -5.15129512e-04 
       1.39107526e-05       9.37824524e-06      -5.15129512e-04 
       1.39107526e-05       9.37824524e-06      -5.15129512e-04 
       1.39107526e-05       9.37824524e-06      -5.15129512e-04 
      -1.51822322e-04       1.63358023e-04      -2.90678342e-03 
      -1.51822322e-04       1.63358023e-04      -2.90678342e-03 
      -1.51822322e-04       1.63358023e-04      -2.90678342e-03 
      -1.51822322e-04       1.63358023e-04      -2.90678342e-03 
      -6.89557847e-05       8.63681339e-05      -1.71095646e-03 
      -6.89557847e-05       8.63681339e-05      -1.71095646e-03 
      -6.89557847e-05       8.63681339e-05      -1.71095646e-03 
      -6.89557847e-05       8.63681339e-05      -1.71095646e-03 
       1.39107526e-05       9.37824524e-06      -5.15129512e-04 
       1.39107526e-05       9.37824524e-06      -5.15129512e-04 
       1.39107526e-05       9.37824524e-06      -5.15129512e-04 
       1.39107526e-05       9.37824524e-06      -5.15129512e-04 
      -1.50968900e-04      -1.39163869e-04      -2.86454542e-03 
      -1.50968900e-04      -1.39163869e-04      -2.86454542e-03 
      -1.50968900e-04      -1.39163869e-04      -2.86454542e-03 
      -1.50968900e-04      -1.39163869e-04      -2.86454542e-03 
       1.39107526e-05       9.37824524e-06      -5.15129512e-04 
       1.39107526e-05       9.37824524e-06      -5.15129512e-04 
       1.39107526e-05       9.37824524e-06      -5.15129512e-04 
       1.39107526e-05       9.37824524e-06      -5.15129512e-04 
      -1.50968900e-04      -1.39163869e-04      -2.86454542e-03 
      -1.50968900e-04      -1.39163869e-04      -2.86454542e-03 
      -1.50968900e-04      -1.39163869e-04      -2.86454542e-03 
      -1.50968900e-04      -1.39163869e-04      -2.86454542e-03 
      -6.85290736e-05      -6.48928120e-05      -1.68983746e-03 
      -6.85290736e-05      -6.48928120e-05      -1.68983746e-03 
      -6.85290736e-05      -6.48928120e-05      -1.68983746e-03 
      -6.85290736e-05      -6.48928120e-05      -1.68983746e-03 
      -1.41569207e-05       9.37833014e-06      -5.15155423e-04 
      -1.41569207e-05       9.37833014e-06      -5.15155423e-04 
      -1.41569207e-05       9.37833014e-06      -5.15155423e-04 
      -1.41569207e-05       9.37833014e-06      -5.15155423e-04 
       1.51499099e-04       1.63371807e-04      -2.90709131e-03 
       1.51499099e-04       1.63371807e-04      -2.90709131e-03 
       1.51499099e-04       1.63371807e-04      -2.90709131e-03 
       1.51499099e-04       1.63371807e-04      -2.90709131e-03 
      -1.41569207e-05       9.37833014e-06      -5.15155423e-04 
      -1.41569207e-05       9.37833014e-06      -5.15155423e-04 
      -1.41569207e-05       9.37833014e-06      -5.15155423e-04 
      -1.41569207e-05       9.37833014e-06      -5.15155423e-04 
       1.51499099e-04       1.63371807e-04      -2.90709131e-03 
       1.51499099e-04       1.63371807e-04      -2.90709131e-03 
       1.51499099e-04       1.63371807e-04      -2.90709131e-03 
       1.51499099e-04       1.63371807e-04      -2.90709131e-03 
       6.86710890e-05       8.63750684e-05      -1.71112337e-03 
       6.86710890e-05       8.63750684e-05      -1.71112337e-03 
       6.86710890e-05       8.63750684e-05      -1.71112337e-03 
       6.86710890e-05       8.63750684e-05      -1.71112337e-03 
      -1.41569207e-05       9.37833014e-06      -5.15155423e-04 
      -1.41569207e-05       9.37833014e-06      -5.15155423e-04 
      -1.41569207e-05       9.37833014e-06      -5.15155423e-04 
      -1.41569207e-05       9.37833014e-06      -5.15155423e-04 
      -1.23018406e-07       2.36873209e-05      -5.16152396e-04 
      -1.23018406e-07       2.36873209e-05      -5.16152396e-04 