# vtk DataFile Version 2.0
./output/Static_Tower/Static_Tower_0005.vtk
ASCII
DATASET UNSTRUCTURED_GRID

POINTS 13260 float
      -4.335798e+00       4.312524e+00      -9.533671e-03 
      -4.309007e+00       4.315350e+00      -9.533671e-03 
      -4.311002e+00       4.334276e+00       9.533671e-03 
      -4.337793e+00       4.331450e+00       9.533671e-03 
      -3.879871e+00      -1.087572e-02       4.329578e+00 
      -3.853080e+00      -8.050452e-03       4.329578e+00 
      -3.855076e+00       1.087571e-02       4.348645e+00 
      -3.881867e+00       8.050435e-03       4.348645e+00 
      -4.321989e+00       4.310017e+00      -1.348265e-02 
      -4.304456e+00       4.325398e+00       0.000000e+00 
      -4.324811e+00       4.336783e+00       1.348265e-02 
      -4.342344e+00       4.321402e+00       0.000000e+00 
      -3.866062e+00      -1.338282e-02       4.325629e+00 
      -3.848529e+00       1.997760e-03       4.339112e+00 
      -3.868885e+00       1.338281e-02       4.352594e+00 
      -3.886418e+00      -1.997778e-03       4.339112e+00 
      -4.107834e+00       2.150824e+00       2.160022e+00 
      -4.081043e+00       2.153650e+00       2.160022e+00 
      -4.083039e+00       2.172576e+00       2.179089e+00 
      -4.109830e+00       2.169750e+00       2.179089e+00 
       4.309008e+00       4.315347e+00      -9.533476e-03 
       4.335800e+00       4.312527e+00      -9.533476e-03 
       4.337792e+00       4.331453e+00       9.533476e-03 
       4.311000e+00       4.334273e+00       9.533476e-03 
       3.853932e+00      -8.053447e-03       4.329667e+00 
       3.880724e+00      -1.087351e-02       4.329667e+00 
       3.882716e+00       8.053429e-03       4.348734e+00 
       3.855924e+00       1.087349e-02       4.348734e+00 
       4.321991e+00       4.310017e+00      -1.348237e-02 
       4.342345e+00       4.321406e+00       0.000000e+00 
       4.324809e+00       4.336783e+00       1.348237e-02 
       4.304455e+00       4.325394e+00       0.000000e+00 
       3.866915e+00      -1.338337e-02       4.325718e+00 
       3.887269e+00      -1.994093e-03       4.339201e+00 
       3.869733e+00       1.338336e-02       4.352683e+00 
       3.849379e+00       1.994075e-03       4.339201e+00 
       4.081470e+00       2.153647e+00       2.160067e+00 
       4.108262e+00       2.150826e+00       2.160067e+00 
       4.110254e+00       2.169753e+00       2.179134e+00 
       4.083462e+00       2.172573e+00       2.179134e+00 
      -4.309007e+00      -4.315350e+00      -9.533671e-03 
      -4.335798e+00      -4.312524e+00      -9.533671e-03 
      -4.337793e+00      -4.331450e+00       9.533671e-03 
      -4.311002e+00      -4.334276e+00       9.533671e-03 
      -3.853080e+00       8.050435e-03       4.329578e+00 
      -3.879871e+00       1.087571e-02       4.329578e+00 
      -3.881867e+00      -8.050452e-03       4.348645e+00 
      -3.855076e+00      -1.087572e-02       4.348645e+00 
      -4.321989e+00      -4.310017e+00      -1.348265e-02 
      -4.342344e+00      -4.321402e+00       0.000000e+00 
      -4.324811e+00      -4.336783e+00       1.348265e-02 
      -4.304456e+00      -4.325398e+00       0.000000e+00 
      -3.866062e+00       1.338281e-02       4.325629e+00 
      -3.886418e+00       1.997760e-03       4.339112e+00 
      -3.868885e+00      -1.338282e-02       4.352594e+00 
      -3.848529e+00      -1.997778e-03       4.339112e+00 
      -4.081043e+00      -2.153650e+00       2.160022e+00 
      -4.107834e+00      -2.150824e+00       2.160022e+00 
      -4.109830e+00      -2.169750e+00       2.179089e+00 
      -4.083039e+00      -2.172576e+00       2.179089e+00 
      -4.315348e+00       4.309007e+00      -9.534024e-03 
      -4.312526e+00       4.335799e+00      -9.534024e-03 
      -4.331452e+00       4.337793e+00       9.534024e-03 
      -4.334274e+00       4.311001e+00       9.534024e-03 
       8.465409e-03       3.853506e+00       4.329622e+00 
       1.128781e-02       3.880298e+00       4.329622e+00 
      -7.637863e-03       3.882291e+00       4.348690e+00 
      -1.046026e-02       3.855500e+00       4.348690e+00 
      -4.310018e+00       4.321990e+00      -1.348315e-02 
      -4.321404e+00       4.342344e+00       0.000000e+00 
      -4.336782e+00       4.324810e+00       1.348315e-02 
      -4.325396e+00       4.304456e+00       0.000000e+00 
       1.379624e-02       3.866489e+00       4.325673e+00 
       2.409510e-03       3.886843e+00       4.339156e+00 
      -1.296870e-02       3.869309e+00       4.352639e+00 
      -1.581964e-03       3.848954e+00       4.339156e+00 
      -2.153441e+00       4.081257e+00       2.160044e+00 
      -2.150619e+00       4.108048e+00       2.160044e+00 
      -2.169545e+00       4.110042e+00       2.179112e+00 
      -2.172367e+00       4.083251e+00       2.179112e+00 
      -4.312526e+00      -4.335799e+00      -9.534024e-03 
      -4.315348e+00      -4.309007e+00      -9.534024e-03 
      -4.334274e+00      -4.311001e+00       9.534024e-03 
      -4.331452e+00      -4.337793e+00       9.534024e-03 
       1.128781e-02      -3.880298e+00       4.329622e+00 
       8.465409e-03      -3.853506e+00       4.329622e+00 
      -1.046026e-02      -3.855500e+00       4.348690e+00 
      -7.637863e-03      -3.882291e+00       4.348690e+00 
      -4.310018e+00      -4.321990e+00      -1.348315e-02 
      -4.325396e+00      -4.304456e+00       0.000000e+00 
      -4.336782e+00      -4.324810e+00       1.348315e-02 
      -4.321404e+00      -4.342344e+00       0.000000e+00 
       1.379624e-02      -3.866489e+00       4.325673e+00 
      -1.581965e-03      -3.848954e+00       4.339156e+00 
      -1.296870e-02      -3.869309e+00       4.352639e+00 
       2.409510e-03      -3.886843e+00       4.339156e+00 
      -2.150619e+00      -4.108048e+00       2.160044e+00 
      -2.153441e+00      -4.081257e+00       2.160044e+00 
      -2.172367e+00      -4.083251e+00       2.179112e+00 
      -2.169545e+00      -4.110042e+00       2.179112e+00 
       4.312525e+00       4.335799e+00      -9.533123e-03 
       4.315348e+00       4.309007e+00      -9.533123e-03 
       4.334275e+00       4.311001e+00       9.533123e-03 
       4.331452e+00       4.337793e+00       9.533123e-03 
      -1.046141e-02       3.880297e+00       4.329623e+00 
      -7.638473e-03       3.853506e+00       4.329623e+00 
       1.128895e-02       3.855500e+00       4.348689e+00 
       8.466019e-03       3.882292e+00       4.348689e+00 
       4.310016e+00       4.321990e+00      -1.348187e-02 
       4.325396e+00       4.304456e+00       0.000000e+00 
       4.336784e+00       4.324810e+00       1.348187e-02 
       4.321404e+00       4.342344e+00       0.000000e+00 
      -1.296994e-02       3.866489e+00       4.325674e+00 
       2.409888e-03       3.848954e+00       4.339156e+00 
       1.379748e-02       3.869309e+00       4.352638e+00 
      -1.582342e-03       3.886843e+00       4.339156e+00 
       2.151032e+00       4.108048e+00       2.160045e+00 
       2.153855e+00       4.081257e+00       2.160045e+00 
       2.172782e+00       4.083251e+00       2.179111e+00 
       2.169959e+00       4.110042e+00       2.179111e+00 
       4.335800e+00      -4.312527e+00      -9.533476e-03 
       4.309008e+00      -4.315347e+00      -9.533476e-03 
       4.311000e+00      -4.334273e+00       9.533476e-03 
       4.337792e+00      -4.331453e+00       9.533476e-03 
       3.880724e+00       1.087349e-02       4.329667e+00 
       3.853932e+00       8.053429e-03       4.329667e+00 
       3.855924e+00      -1.087351e-02       4.348734e+00 
       3.882716e+00      -8.053447e-03       4.348734e+00 
       4.321991e+00      -4.310017e+00      -1.348237e-02 
       4.304455e+00      -4.325394e+00       0.000000e+00 
       4.324809e+00      -4.336783e+00       1.348237e-02 
       4.342345e+00      -4.321406e+00       0.000000e+00 
       3.866915e+00       1.338336e-02       4.325718e+00 
       3.849379e+00      -1.994093e-03       4.339201e+00 
       3.869733e+00      -1.338337e-02       4.352683e+00 
       3.887269e+00       1.994075e-03       4.339201e+00 
       4.108262e+00      -2.150827e+00       2.160067e+00 
       4.081470e+00      -2.153647e+00       2.160067e+00 
       4.083462e+00      -2.172574e+00       2.179134e+00 
       4.110254e+00      -2.169753e+00       2.179134e+00 
       4.315348e+00      -4.309007e+00      -9.533123e-03 
       4.312525e+00      -4.335799e+00      -9.533123e-03 
       4.331452e+00      -4.337793e+00       9.533123e-03 
       4.334275e+00      -4.311001e+00       9.533123e-03 
      -7.638473e-03      -3.853506e+00       4.329623e+00 
      -1.046141e-02      -3.880297e+00       4.329623e+00 
       8.466019e-03      -3.882292e+00       4.348689e+00 
       1.128895e-02      -3.855500e+00       4.348689e+00 
       4.310016e+00      -4.321990e+00      -1.348187e-02 
       4.321404e+00      -4.342344e+00       0.000000e+00 
       4.336784e+00      -4.324810e+00       1.348187e-02 
       4.325396e+00      -4.304456e+00       0.000000e+00 
      -1.296994e-02      -3.866489e+00       4.325674e+00 
      -1.582342e-03      -3.886843e+00       4.339156e+00 
       1.379748e-02      -3.869309e+00       4.352638e+00 
       2.409888e-03      -3.848954e+00       4.339156e+00 
       2.153855e+00      -4.081257e+00       2.160045e+00 
       2.151032e+00      -4.108048e+00       2.160045e+00 
       2.169959e+00      -4.110042e+00       2.179111e+00 
       2.172782e+00      -4.083251e+00       2.179111e+00 
      -4.290298e+00      -4.323599e+00      -3.457350e-03 
      -4.323562e+00      -4.290298e+00      -3.457350e-03 
      -4.356502e+00      -4.323201e+00       3.457350e-03 
      -4.323238e+00      -4.356502e+00       3.457350e-03 
      -3.834274e+00      -3.868087e+00       4.336420e+00 
      -3.867538e+00      -3.834786e+00       4.336420e+00 
      -3.900478e+00      -3.867689e+00       4.343335e+00 
[...]
POINT_DATA     13260 
VECTORS Displacements float
       0.00000000e+00       0.00000000e+00       0.00000000e+00 
       0.00000000e+00       0.00000000e+00       0.00000000e+00 
       0.00000000e+00       0.00000000e+00       0.00000000e+00 
       0.00000000e+00       0.00000000e+00       0.00000000e+00 
       4.26393519e-04      -8.79424150e-09      -8.84520184e-05 
       4.26393519e-04      -8.79424150e-09      -8.84520184e-05 
       4.26393519e-04      -8.79424150e-09      -8.84520184e-05 
       4.26393519e-04      -8.79424150e-09      -8.84520184e-05 
       0.00000000e+00       0.00000000e+00       0.00000000e+00 
       0.00000000e+00       0.00000000e+00       0.00000000e+00 
       0.00000000e+00       0.00000000e+00       0.00000000e+00 
       0.00000000e+00       0.00000000e+00       0.00000000e+00 
       4.26393519e-04      -8.79424150e-09      -8.84520184e-05 
       4.26393519e-04      -8.79424150e-09      -8.84520184e-05 
       4.26393519e-04      -8.79424150e-09      -8.84520184e-05 
       4.26393519e-04      -8.79424150e-09      -8.84520184e-05 
       2.13196759e-04      -4.39712075e-09      -4.42260092e-05 
       2.13196759e-04      -4.39712075e-09      -4.42260092e-05 
       2.13196759e-04      -4.39712075e-09      -4.42260092e-05 
       2.13196759e-04      -4.39712075e-09      -4.42260092e-05 
       0.00000000e+00       0.00000000e+00       0.00000000e+00 
       0.00000000e+00       0.00000000e+00       0.00000000e+00 
       0.00000000e+00       0.00000000e+00       0.00000000e+00 
       0.00000000e+00       0.00000000e+00       0.00000000e+00 
       4.24009104e-04      -9.07476880e-09       8.00141716e-07 
       4.24009104e-04      -9.07476880e-09       8.00141716e-07 
       4.24009104e-04      -9.07476880e-09       8.00141716e-07 
       4.24009104e-04      -9.07476880e-09       8.00141716e-07 
       0.00000000e+00       0.00000000e+00       0.00000000e+00 
       0.00000000e+00       0.00000000e+00       0.00000000e+00 
       0.00000000e+00       0.00000000e+00       0.00000000e+00 
       0.00000000e+00       0.00000000e+00       0.00000000e+00 
       4.24009104e-04      -9.07476880e-09       8.00141716e-07 
       4.24009104e-04      -9.07476880e-09       8.00141716e-07 
       4.24009104e-04      -9.07476880e-09       8.00141716e-07 
       4.24009104e-04      -9.07476880e-09       8.00141716e-07 
       2.12004552e-04      -4.53738440e-09       4.00070858e-07 
       2.12004552e-04      -4.53738440e-09       4.00070858e-07 
       2.12004552e-04      -4.53738440e-09       4.00070858e-07 
       2.12004552e-04      -4.53738440e-09       4.00070858e-07 
       0.00000000e+00       0.00000000e+00       0.00000000e+00 
       0.00000000e+00       0.00000000e+00       0.00000000e+00 
       0.00000000e+00       0.00000000e+00       0.00000000e+00 
       0.00000000e+00       0.00000000e+00       0.00000000e+00 
       4.26393519e-04      -8.79424150e-09      -8.84520184e-05 
       4.26393519e-04      -8.79424150e-09      -8.84520184e-05 
       4.26393519e-04      -8.79424150e-09      -8.84520184e-05 
       4.26393519e-04      -8.79424150e-09      -8.84520184e-05 
       0.00000000e+00       0.00000000e+00       0.00000000e+00 
       0.00000000e+00       0.00000000e+00       0.00000000e+00 
       0.00000000e+00       0.00000000e+00       0.00000000e+00 
       0.00000000e+00       0.00000000e+00       0.00000000e+00 
       4.26393519e-04      -8.79424150e-09      -8.84520184e-05 
       4.26393519e-04      -8.79424150e-09      -8.84520184e-05 
       4.26393519e-04      -8.79424150e-09      -8.84520184e-05 
       4.26393519e-04      -8.79424150e-09      -8.84520184e-05 
       2.13196759e-04      -4.39712075e-09      -4.42260092e-05 
       2.13196759e-04      -4.39712075e-09      -4.42260092e-05 
       2.13196759e-04      -4.39712075e-09      -4.42260092e-05 
       2.13196759e-04      -4.39712075e-09      -4.42260092e-05 
       0.00000000e+00       0.00000000e+00       0.00000000e+00 
       0.00000000e+00       0.00000000e+00       0.00000000e+00 
       0.00000000e+00       0.00000000e+00       0.00000000e+00 
       0.00000000e+00       0.00000000e+00       0.00000000e+00 
       4.13773015e-04      -1.20522064e-06      -4.38646711e-05 
       4.13773015e-04      -1.20522064e-06      -4.38646711e-05 
       4.13773015e-04      -1.20522064e-06      -4.38646711e-05 
       4.13773015e-04      -1.20522064e-06      -4.38646711e-05 
       0.00000000e+00       0.00000000e+00       0.00000000e+00 
       0.00000000e+00       0.00000000e+00       0.00000000e+00 
       0.00000000e+00       0.00000000e+00       0.00000000e+00 
       0.00000000e+00       0.00000000e+00       0.00000000e+00 
       4.13773015e-04      -1.20522064e-06      -4.38646711e-05 
       4.13773015e-04      -1.20522064e-06      -4.38646711e-05 
       4.13773015e-04      -1.20522064e-06      -4.38646711e-05 
       4.13773015e-04      -1.20522064e-06      -4.38646711e-05 
       2.06886508e-04      -6.02610319e-07      -2.19323356e-05 
       2.06886508e-04      -6.02610319e-07      -2.19323356e-05 
       2.06886508e-04      -6.02610319e-07      -2.19323356e-05 
       2.06886508e-04      -6.02610319e-07      -2.19323356e-05 
       0.00000000e+00       0.00000000e+00       0.00000000e+00 
       0.00000000e+00       0.00000000e+00       0.00000000e+00 
       0.00000000e+00       0.00000000e+00       0.00000000e+00 
       0.00000000e+00       0.00000000e+00       0.00000000e+00 
       4.13772769e-04       1.18735137e-06      -4.38627949e-05 
       4.13772769e-04       1.18735137e-06      -4.38627949e-05 
       4.13772769e-04       1.18735137e-06      -4.38627949e-05 
       4.13772769e-04       1.18735137e-06      -4.38627949e-05 
       0.00000000e+00       0.00000000e+00       0.00000000e+00 
       0.00000000e+00       0.00000000e+00       0.00000000e+00 
       0.00000000e+00       0.00000000e+00       0.00000000e+00 
       0.00000000e+00       0.00000000e+00       0.00000000e+00 
       4.13772769e-04       1.18735137e-06      -4.38627949e-05 
       4.13772769e-04       1.18735137e-06      -4.38627949e-05 
       4.13772769e-04       1.18735137e-06      -4.38627949e-05 
       4.13772769e-04       1.18735137e-06      -4.38627949e-05 
       2.06886384e-04       5.93675683e-07      -2.19313975e-05 
       2.06886384e-04       5.93675683e-07      -2.19313975e-05 
       2.06886384e-04       5.93675683e-07      -2.19313975e-05 
       2.06886384e-04       5.93675683e-07      -2.19313975e-05 
       0.00000000e+00       0.00000000e+00       0.00000000e+00 
       0.00000000e+00       0.00000000e+00       0.00000000e+00 
       0.00000000e+00       0.00000000e+00       0.00000000e+00 
       0.00000000e+00       0.00000000e+00       0.00000000e+00 
       4.13773015e-04      -1.20522064e-06      -4.38646711e-05 
       4.13773015e-04      -1.20522064e-06      -4.38646711e-05 
       4.13773015e-04      -1.20522064e-06      -4.38646711e-05 
       4.13773015e-04      -1.20522064e-06      -4.38646711e-05 
       0.00000000e+00       0.00000000e+00       0.00000000e+00 
       0.00000000e+00       0.00000000e+00       0.00000000e+00 
       0.00000000e+00       0.00000000e+00       0.00000000e+00 
       0.00000000e+00       0.00000000e+00       0.00000000e+00 
       4.13773015e-04      -1.20522064e-06      -4.38646711e-05 
       4.13773015e-04      -1.20522064e-06      -4.38646711e-05 
       4.13773015e-04      -1.20522064e-06      -4.38646711e-05 
       4.13773015e-04      -1.20522064e-06      -4.38646711e-05 
       2.06886508e-04      -6.02610319e-07      -2.19323356e-05 
       2.06886508e-04      -6.02610319e-07      -2.19323356e-05 
       2.06886508e-04      -6.02610319e-07      -2.19323356e-05 
       2.06886508e-04      -6.02610319e-07      -2.19323356e-05 
       0.00000000e+00       0.00000000e+00       0.00000000e+00 
       0.00000000e+00       0.00000000e+00       0.00000000e+00 
       0.00000000e+00       0.00000000e+00       0.00000000e+00 
       0.00000000e+00       0.00000000e+00       0.00000000e+00 
       4.24009104e-04      -9.07476880e-09       8.00141716e-07 
       4.24009104e-04      -9.07476880e-09       8.00141716e-07 
       4.24009104e-04      -9.07476880e-09       8.00141716e-07 
       4.24009104e-04      -9.07476880e-09       8.00141716e-07 
       0.00000000e+00       0.00000000e+00       0.00000000e+00 
       0.00000000e+00       0.00000000e+00       0.00000000e+00 
       0.00000000e+00       0.00000000e+00       0.00000000e+00 
       0.00000000e+00       0.00000000e+00       0.00000000e+00 
       4.24009104e-04      -9.07476880e-09       8.00141716e-07 
       4.24009104e-04      -9.07476880e-09       8.00141716e-07 
       4.24009104e-04      -9.07476880e-09       8.00141716e-07 
       4.24009104e-04      -9.07476880e-09       8.00141716e-07 
       2.12004552e-04      -4.53738440e-09       4.00070858e-07 
       2.12004552e-04      -4.53738440e-09       4.00070858e-07 
       2.12004552e-04      -4.53738440e-09       4.00070858e-07 
       2.12004552e-04      -4.53738440e-09       4.00070858e-07 
       0.00000000e+00       0.00000000e+00       0.00000000e+00 
       0.00000000e+00       0.00000000e+00       0.00000000e+00 
       0.00000000e+00       0.00000000e+00       0.00000000e+00 
       0.00000000e+00       0.00000000e+00       0.00000000e+00 
       4.13772769e-04       1.18735137e-06      -4.38627949e-05 
       4.13772769e-04       1.18735137e-06      -4.38627949e-05 
       4.13772769e-04       1.18735137e-06      -4.38627949e-05 
       4.13772769e-04       1.18735137e-06      -4.38627949e-05 
       0.00000000e+00       0.00000000e+00       0.00000000e+00 
       0.00000000e+00       0.00000000e+00       0.00000000e+00 
       0.00000000e+00       0.00000000e+00       0.00000000e+00 
       0.00000000e+00       0.00000000e+00       0.00000000e+00 
       4.13772769e-04       1.18735137e-06      -4.38627949e-05 
       4.13772769e-04       1.18735137e-06      -4.38627949e-05 
       4.13772769e-04       1.18735137e-06      -4.38627949e-05 
       4.13772769e-04       1.18735137e-06      -4.38627949e-05 
       2.06886384e-04       5.93675683e-07      -2.19313975e-05 
       2.06886384e-04       5.93675683e-07      -2.19313975e-05 
       2.06886384e-04       5.93675683e-07      -2.19313975e-05 
       2.06886384e-04       5.93675683e-07      -2.19313975e-05 
       0.00000000e+00       0.00000000e+00       0.00000000e+00 
       0.00000000e+00       0.00000000e+00       0.00000000e+00 
       0.00000000e+00       0.00000000e+00       0.00000000e+00 
       0.00000000e+00       0.00000000e+00       0.00000000e+00 
       5.24110501e-04       1.19328371e-05       6.77464935e-04 
       5.24110501e-04       1.19328371e-05       6.77464935e-04 
       5.24110501e-04       1.19328371e-05       6.77464935e-04 
       5.24110501e-04       1.19328371e-05       6.77464935e-04 
       0.00000000e+00       0.00000000e+00       0.00000000e+00 
       0.00000000e+00       0.00000000e+00       0.00000000e+00 
       0.00000000e+00       0.00000000e+00       0.00000000e+00 
       0.00000000e+00       0.00000000e+00       0.00000000e+00 
       5.24110501e-04       1.19328371e-05       6.77464935e-04 
       5.24110501e-04       1.19328371e-05       6.77464935e-04 
       5.24110501e-04       1.19328371e-05       6.77464935e-04 
       5.24110501e-04       1.19328371e-05       6.77464935e-04 
       2.62055251e-04       5.96641853e-06       3.38732468e-04 
       2.62055251e-04       5.96641853e-06       3.38732468e-04 
       2.62055251e-04       5.96641853e-06       3.38732468e-04 
       2.62055251e-04       5.96641853e-06       3.38732468e-04 
       0.00000000e+00       0.00000000e+00       0.00000000e+00 
       0.00000000e+00       0.00000000e+00       0.00000000e+00 
       0.00000000e+00       0.00000000e+00       0.00000000e+00 
       0.00000000e+00       0.00000000e+00       0.00000000e+00 
       5.45401746e-04      -3.20599642e-05      -1.01887058e-03 
       5.45401746e-04      -3.20599642e-05      -1.01887058e-03 
       5.45401746e-04      -3.20599642e-05      -1.01887058e-03 
       5.45401746e-04      -3.20599642e-05      -1.01887058e-03 
       0.00000000e+00       0.00000000e+00       0.00000000e+00 
       0.00000000e+00       0.00000000e+00       0.00000000e+00 
       0.00000000e+00       0.00000000e+00       0.00000000e+00 
       0.00000000e+00       0.00000000e+00       0.00000000e+00 
       5.45401746e-04      -3.20599642e-05      -1.01887058e-03 
       5.45401746e-04      -3.20599642e-05      -1.01887058e-03 
       5.45401746e-04      -3.20599642e-05      -1.01887058e-03 
       5.45401746e-04      -3.20599642e-05      -1.01887058e-03 
       2.72700873e-04      -1.60299821e-05      -5.09435289e-04 
       2.72700873e-04      -1.60299821e-05      -5.09435289e-04 
       2.72700873e-04      -1.60299821e-05      -5.09435289e-04 
       2.72700873e-04      -1.60299821e-05      -5.09435289e-04 
       0.00000000e+00       0.00000000e+00       0.00000000e+00 
       0.00000000e+00       0.00000000e+00       0.00000000e+00 
       0.00000000e+00       0.00000000e+00       0.00000000e+00 
       0.00000000e+00       0.00000000e+00       0.00000000e+00 
       5.45403146e-04       3.20361343e-05      -1.01889310e-03 
       5.45403146e-04       3.20361343e-05      -1.01889310e-03 
       5.45403146e-04       3.20361343e-05      -1.01889310e-03 
       5.45403146e-04       3.20361343e-05      -1.01889310e-03 
       0.00000000e+00       0.00000000e+00       0.00000000e+00 
       0.00000000e+00       0.00000000e+00       0.00000000e+00 
       0.00000000e+00       0.00000000e+00       0.00000000e+00 
       0.00000000e+00       0.00000000e+00       0.00000000e+00 
       5.45403146e-04       3.20361343e-05      -1.01889310e-03 
       5.45403146e-04       3.20361343e-05      -1.01889310e-03 
       5.45403146e-04       3.20361343e-05      -1.01889310e-03 
       5.45403146e-04       3.20361343e-05      -1.01889310e-03 
       2.72701573e-04       1.60180672e-05      -5.09446549e-04 
       2.72701573e-04       1.60180672e-05      -5.09446549e-04 
       2.72701573e-04       1.60180672e-05      -5.09446549e-04 
       2.72701573e-04       1.60180672e-05      -5.09446549e-04 
       0.00000000e+00       0.00000000e+00       0.00000000e+00 
       0.00000000e+00       0.00000000e+00       0.00000000e+00 
       0.00000000e+00       0.00000000e+00       0.00000000e+00 
       0.00000000e+00       0.00000000e+00       0.00000000e+00 
       5.24109715e-04      -1.19558963e-05       6.77442453e-04 
       5.24109715e-04      -1.19558963e-05       6.77442453e-04 
       5.24109715e-04      -1.19558963e-05       6.77442453e-04 
       5.24109715e-04      -1.19558963e-05       6.77442453e-04 
       0.00000000e+00       0.00000000e+00       0.00000000e+00 
       0.00000000e+00       0.00000000e+00       0.00000000e+00 
       0.00000000e+00       0.00000000e+00       0.00000000e+00 
       0.00000000e+00       0.00000000e+00       0.00000000e+00 
       5.24109715e-04      -1.19558963e-05       6.77442453e-04 
       5.24109715e-04      -1.19558963e-05       6.77442453e-04 
       5.24109715e-04      -1.19558963e-05       6.77442453e-04 
       5.24109715e-04      -1.19558963e-05       6.77442453e-04 
       2.62054858e-04      -5.97794815e-06       3.38721227e-04 
       2.62054858e-04      -5.97794815e-06       3.38721227e-04 
       2.62054858e-04      -5.97794815e-06       3.38721227e-04 
       2.62054858e-04      -5.97794815e-06       3.38721227e-04 
       4.26393519e-04      -8.79424150e-09      -8.84520184e-05 
       4.26393519e-04      -8.79424150e-09      -8.84520184e-05 
       4.26393519e-04      -8.79424150e-09      -8.84520184e-05 
       4.26393519e-04      -8.79424150e-09      -8.84520184e-05 
       5.24109715e-04      -1.19558963e-05       6.77442453e-04 
       5.24109715e-04      -1.19558963e-05       6.77442453e-04 
       5.24109715e-04      -1.19558963e-05       6.77442453e-04 
       5.24109715e-04      -1.19558963e-05       6.77442453e-04 
       4.26393519e-04      -8.79424150e-09      -8.84520184e-05 
       4.26393519e-04      -8.79424150e-09      -8.84520184e-05 
       4.26393519e-04      -8.79424150e-09      -8.84520184e-05 
       4.26393519e-04      -8.79424150e-09      -8.84520184e-05 
       5.24109715e-04      -1.19558963e-05       6.77442453e-04 
       5.24109715e-04      -1.19558963e-05       6.77442453e-04 
       5.24109715e-04      -1.19558963e-05       6.77442453e-04 
       5.24109715e-04      -1.19558963e-05       6.77442453e-04 
       4.75251617e-04      -5.98234527e-06       2.94495217e-04 
       4.75251617e-04      -5.98234527e-06       2.94495217e-04 
       4.75251617e-04      -5.98234527e-06       2.94495217e-04 
       4.75251617e-04      -5.98234527e-06       2.94495217e-04 
       4.26393519e-04      -8.79424150e-09      -8.84520184e-05 
       4.26393519e-04      -8.79424150e-09      -8.84520184e-05 
       4.26393519e-04      -8.79424150e-09      -8.84520184e-05 
       4.26393519e-04      -8.79424150e-09      -8.84520184e-05 
       5.24110501e-04       1.19328371e-05       6.77464935e-04 
       5.24110501e-04       1.19328371e-05       6.77464935e-04 
       5.24110501e-04       1.19328371e-05       6.77464935e-04 
       5.24110501e-04       1.19328371e-05       6.77464935e-04 
       4.26393519e-04      -8.79424150e-09      -8.84520184e-05 
       4.26393519e-04      -8.79424150e-09      -8.84520184e-05 
       4.26393519e-04      -8.79424150e-09      -8.84520184e-05 
       4.26393519e-04      -8.79424150e-09      -8.84520184e-05 
       5.24110501e-04       1.19328371e-05       6.77464935e-04 
       5.24110501e-04       1.19328371e-05       6.77464935e-04 
       5.24110501e-04       1.19328371e-05       6.77464935e-04 
       5.24110501e-04       1.19328371e-05       6.77464935e-04 
       4.75252010e-04       5.96202141e-06       2.94506458e-04 
       4.75252010e-04       5.96202141e-06       2.94506458e-04 
       4.75252010e-04       5.96202141e-06       2.94506458e-04 
       4.75252010e-04       5.96202141e-06       2.94506458e-04 
       4.24009104e-04      -9.07476880e-09       8.00141716e-07 
       4.24009104e-04      -9.07476880e-09       8.00141716e-07 
       4.24009104e-04      -9.07476880e-09       8.00141716e-07 
       4.24009104e-04      -9.07476880e-09       8.00141716e-07 
       5.45403146e-04       3.20361343e-05      -1.01889310e-03 
       5.45403146e-04       3.20361343e-05      -1.01889310e-03 
       5.45403146e-04       3.20361343e-05      -1.01889310e-03 
       5.45403146e-04       3.20361343e-05      -1.01889310e-03 
       4.24009104e-04      -9.07476880e-09       8.00141716e-07 
       4.24009104e-04      -9.07476880e-09       8.00141716e-07 
       4.24009104e-04      -9.07476880e-09       8.00141716e-07 
       4.24009104e-04      -9.07476880e-09       8.00141716e-07 
       5.45403146e-04       3.20361343e-05      -1.01889310e-03 
       5.45403146e-04       3.20361343e-05      -1.01889310e-03 
       5.45403146e-04       3.20361343e-05      -1.01889310e-03 
       5.45403146e-04       3.20361343e-05      -1.01889310e-03 
       4.84706125e-04       1.60135298e-05      -5.09046478e-04 
       4.84706125e-04       1.60135298e-05      -5.09046478e-04 
       4.84706125e-04       1.60135298e-05      -5.09046478e-04 
       4.84706125e-04       1.60135298e-05      -5.09046478e-04 
       4.24009104e-04      -9.07476880e-09       8.00141716e-07 
       4.24009104e-04      -9.07476880e-09       8.00141716e-07 
       4.24009104e-04      -9.07476880e-09       8.00141716e-07 
       4.24009104e-04      -9.07476880e-09       8.00141716e-07 
       4.13772769e-04       1.18735137e-06      -4.38627949e-05 
       4.13772769e-04       1.18735137e-06      -4.38627949e-05 