# vtk DataFile Version 2.0
./output/Static_Tower/Static_Tower_0003.vtk
ASCII
DATASET UNSTRUCTURED_GRID

POINTS 13260 float
      -4.335799e+00       4.312526e+00      -9.534092e-03 
      -4.309007e+00       4.315349e+00      -9.534092e-03 
      -4.311001e+00       4.334274e+00       9.534092e-03 
      -4.337793e+00       4.331451e+00       9.534092e-03 
      -3.880285e+00      -1.087425e-02       4.329151e+00 
      -3.853493e+00      -8.051506e-03       4.329151e+00 
      -3.855487e+00       1.087400e-02       4.348219e+00 
      -3.882279e+00       8.051260e-03       4.348219e+00 
      -4.321990e+00       4.310018e+00      -1.348324e-02 
      -4.304456e+00       4.325396e+00       0.000000e+00 
      -4.324810e+00       4.336782e+00       1.348324e-02 
      -4.342344e+00       4.321404e+00       0.000000e+00 
      -3.866476e+00      -1.338248e-02       4.325202e+00 
      -3.848942e+00       1.995858e-03       4.338685e+00 
      -3.869296e+00       1.338223e-02       4.352168e+00 
      -3.886830e+00      -1.996104e-03       4.338685e+00 
      -4.108042e+00       2.150826e+00       2.159808e+00 
      -4.081250e+00       2.153649e+00       2.159808e+00 
      -4.083244e+00       2.172574e+00       2.178877e+00 
      -4.110036e+00       2.169751e+00       2.178877e+00 
       4.309007e+00       4.315349e+00      -9.534092e-03 
       4.335799e+00       4.312526e+00      -9.534092e-03 
       4.337793e+00       4.331451e+00       9.534092e-03 
       4.311001e+00       4.334274e+00       9.534092e-03 
       3.853493e+00      -8.051505e-03       4.329151e+00 
       3.880285e+00      -1.087425e-02       4.329151e+00 
       3.882279e+00       8.051259e-03       4.348219e+00 
       3.855487e+00       1.087400e-02       4.348219e+00 
       4.321990e+00       4.310018e+00      -1.348324e-02 
       4.342344e+00       4.321404e+00       0.000000e+00 
       4.324810e+00       4.336782e+00       1.348324e-02 
       4.304456e+00       4.325396e+00       0.000000e+00 
       3.866476e+00      -1.338248e-02       4.325202e+00 
       3.886830e+00      -1.996105e-03       4.338685e+00 
       3.869296e+00       1.338223e-02       4.352168e+00 
       3.848941e+00       1.995860e-03       4.338685e+00 
       4.081250e+00       2.153649e+00       2.159808e+00 
       4.108042e+00       2.150826e+00       2.159808e+00 
       4.110036e+00       2.169751e+00       2.178877e+00 
       4.083244e+00       2.172574e+00       2.178877e+00 
      -4.309007e+00      -4.315349e+00      -9.534092e-03 
      -4.335799e+00      -4.312526e+00      -9.534092e-03 
      -4.337793e+00      -4.331451e+00       9.534092e-03 
      -4.311001e+00      -4.334274e+00       9.534092e-03 
      -3.853493e+00       8.051260e-03       4.329151e+00 
      -3.880285e+00       1.087400e-02       4.329151e+00 
      -3.882279e+00      -8.051506e-03       4.348219e+00 
      -3.855487e+00      -1.087425e-02       4.348219e+00 
      -4.321990e+00      -4.310018e+00      -1.348324e-02 
      -4.342344e+00      -4.321404e+00       0.000000e+00 
      -4.324810e+00      -4.336782e+00       1.348324e-02 
      -4.304456e+00      -4.325396e+00       0.000000e+00 
      -3.866476e+00       1.338223e-02       4.325202e+00 
      -3.886830e+00       1.995859e-03       4.338685e+00 
      -3.869296e+00      -1.338248e-02       4.352168e+00 
      -3.848942e+00      -1.996104e-03       4.338685e+00 
      -4.081250e+00      -2.153649e+00       2.159808e+00 
      -4.108042e+00      -2.150826e+00       2.159808e+00 
      -4.110036e+00      -2.169751e+00       2.178877e+00 
      -4.083244e+00      -2.172574e+00       2.178877e+00 
      -4.315349e+00       4.309007e+00      -9.534092e-03 
      -4.312526e+00       4.335799e+00      -9.534092e-03 
      -4.331451e+00       4.337793e+00       9.534092e-03 
      -4.334274e+00       4.311001e+00       9.534092e-03 
       8.051259e-03       3.853493e+00       4.329151e+00 
       1.087400e-02       3.880285e+00       4.329151e+00 
      -8.051505e-03       3.882279e+00       4.348219e+00 
      -1.087425e-02       3.855487e+00       4.348219e+00 
      -4.310018e+00       4.321990e+00      -1.348324e-02 
      -4.321404e+00       4.342344e+00       0.000000e+00 
      -4.336782e+00       4.324810e+00       1.348324e-02 
      -4.325396e+00       4.304456e+00       0.000000e+00 
       1.338223e-02       3.866476e+00       4.325202e+00 
       1.995859e-03       3.886830e+00       4.338685e+00 
      -1.338248e-02       3.869296e+00       4.352168e+00 
      -1.996106e-03       3.848941e+00       4.338685e+00 
      -2.153649e+00       4.081250e+00       2.159808e+00 
      -2.150826e+00       4.108042e+00       2.159808e+00 
      -2.169751e+00       4.110036e+00       2.178877e+00 
      -2.172574e+00       4.083244e+00       2.178877e+00 
      -4.312526e+00      -4.335799e+00      -9.534092e-03 
      -4.315349e+00      -4.309007e+00      -9.534092e-03 
      -4.334274e+00      -4.311001e+00       9.534092e-03 
      -4.331451e+00      -4.337793e+00       9.534092e-03 
       1.087400e-02      -3.880285e+00       4.329151e+00 
       8.051260e-03      -3.853493e+00       4.329151e+00 
      -1.087425e-02      -3.855487e+00       4.348219e+00 
      -8.051506e-03      -3.882279e+00       4.348219e+00 
      -4.310018e+00      -4.321990e+00      -1.348324e-02 
      -4.325396e+00      -4.304456e+00       0.000000e+00 
      -4.336782e+00      -4.324810e+00       1.348324e-02 
      -4.321404e+00      -4.342344e+00       0.000000e+00 
       1.338223e-02      -3.866476e+00       4.325202e+00 
      -1.996105e-03      -3.848942e+00       4.338685e+00 
      -1.338248e-02      -3.869296e+00       4.352168e+00 
       1.995858e-03      -3.886830e+00       4.338685e+00 
      -2.150826e+00      -4.108042e+00       2.159808e+00 
      -2.153649e+00      -4.081250e+00       2.159808e+00 
      -2.172574e+00      -4.083244e+00       2.178877e+00 
      -2.169751e+00      -4.110036e+00       2.178877e+00 
       4.312526e+00       4.335799e+00      -9.534092e-03 
       4.315349e+00       4.309007e+00      -9.534092e-03 
       4.334274e+00       4.311001e+00       9.534092e-03 
       4.331451e+00       4.337793e+00       9.534092e-03 
      -1.087425e-02       3.880285e+00       4.329151e+00 
      -8.051505e-03       3.853493e+00       4.329151e+00 
       1.087400e-02       3.855487e+00       4.348219e+00 
       8.051259e-03       3.882279e+00       4.348219e+00 
       4.310018e+00       4.321990e+00      -1.348324e-02 
       4.325396e+00       4.304456e+00       0.000000e+00 
       4.336782e+00       4.324810e+00       1.348324e-02 
       4.321404e+00       4.342344e+00       0.000000e+00 
      -1.338248e-02       3.866476e+00       4.325202e+00 
       1.995859e-03       3.848941e+00       4.338685e+00 
       1.338223e-02       3.869296e+00       4.352168e+00 
      -1.996106e-03       3.886830e+00       4.338685e+00 
       2.150826e+00       4.108042e+00       2.159808e+00 
       2.153649e+00       4.081250e+00       2.159808e+00 
       2.172574e+00       4.083244e+00       2.178877e+00 
       2.169751e+00       4.110036e+00       2.178877e+00 
       4.335799e+00      -4.312526e+00      -9.534092e-03 
       4.309007e+00      -4.315349e+00      -9.534092e-03 
       4.311001e+00      -4.334274e+00       9.534092e-03 
       4.337793e+00      -4.331451e+00       9.534092e-03 
       3.880285e+00       1.087400e-02       4.329151e+00 
       3.853493e+00       8.051259e-03       4.329151e+00 
       3.855487e+00      -1.087425e-02       4.348219e+00 
       3.882279e+00      -8.051505e-03       4.348219e+00 
       4.321990e+00      -4.310018e+00      -1.348324e-02 
       4.304456e+00      -4.325396e+00       0.000000e+00 
       4.324810e+00      -4.336782e+00       1.348324e-02 
       4.342344e+00      -4.321404e+00       0.000000e+00 
       3.866476e+00       1.338223e-02       4.325202e+00 
       3.848941e+00      -1.996106e-03       4.338685e+00 
       3.869296e+00      -1.338248e-02       4.352168e+00 
       3.886830e+00       1.995860e-03       4.338685e+00 
       4.108042e+00      -2.150826e+00       2.159808e+00 
       4.081250e+00      -2.153649e+00       2.159808e+00 
       4.083244e+00      -2.172574e+00       2.178877e+00 
       4.110036e+00      -2.169751e+00       2.178877e+00 
       4.315349e+00      -4.309007e+00      -9.534092e-03 
       4.312526e+00      -4.335799e+00      -9.534092e-03 
       4.331451e+00      -4.337793e+00       9.534092e-03 
       4.334274e+00      -4.311001e+00       9.534092e-03 
      -8.051506e-03      -3.853493e+00       4.329151e+00 
      -1.087425e-02      -3.880285e+00       4.329151e+00 
       8.051260e-03      -3.882279e+00       4.348219e+00 
       1.087400e-02      -3.855487e+00       4.348219e+00 
       4.310018e+00      -4.321990e+00      -1.348324e-02 
       4.321404e+00      -4.342344e+00       0.000000e+00 
       4.336782e+00      -4.324810e+00       1.348324e-02 
       4.325396e+00      -4.304456e+00       0.000000e+00 
      -1.338248e-02      -3.866476e+00       4.325202e+00 
      -1.996104e-03      -3.886830e+00       4.338685e+00 
       1.338223e-02      -3.869296e+00       4.352168e+00 
       1.995858e-03      -3.848942e+00       4.338685e+00 
       2.153649e+00      -4.081250e+00       2.159808e+00 
       2.150826e+00      -4.108042e+00       2.159808e+00 
       2.169751e+00      -4.110036e+00       2.178877e+00 
       2.172574e+00      -4.083244e+00       2.178877e+00 
      -4.290298e+00      -4.323581e+00      -3.457014e-03 
      -4.323581e+00      -4.290298e+00      -3.457014e-03 
      -4.356502e+00      -4.323219e+00       3.457014e-03 
      -4.323219e+00      -4.356502e+00       3.457014e-03 
      -3.834950e+00      -3.868232e+00       4.332857e+00 
      -3.868232e+00      -3.834950e+00       4.332857e+00 
      -3.901153e+00      -3.867871e+00       4.339772e+00 
[...]
POINT_DATA     13260 
VECTORS Displacements float
       0.00000000e+00       0.00000000e+00       0.00000000e+00 
       0.00000000e+00       0.00000000e+00       0.00000000e+00 
       0.00000000e+00       0.00000000e+00       0.00000000e+00 
       0.00000000e+00       0.00000000e+00       0.00000000e+00 
       1.39107506e-05      -1.22944949e-07      -5.15129470e-04 
       1.39107506e-05      -1.22944949e-07      -5.15129470e-04 
       1.39107506e-05      -1.22944949e-07      -5.15129470e-04 
       1.39107506e-05      -1.22944949e-07      -5.15129470e-04 
       0.00000000e+00       0.00000000e+00       0.00000000e+00 
       0.00000000e+00       0.00000000e+00       0.00000000e+00 
       0.00000000e+00       0.00000000e+00       0.00000000e+00 
       0.00000000e+00       0.00000000e+00       0.00000000e+00 
       1.39107506e-05      -1.22944949e-07      -5.15129470e-04 
       1.39107506e-05      -1.22944949e-07      -5.15129470e-04 
       1.39107506e-05      -1.22944949e-07      -5.15129470e-04 
       1.39107506e-05      -1.22944949e-07      -5.15129470e-04 
       6.95537529e-06      -6.14724747e-08      -2.57564735e-04 
       6.95537529e-06      -6.14724747e-08      -2.57564735e-04 
       6.95537529e-06      -6.14724747e-08      -2.57564735e-04 
       6.95537529e-06      -6.14724747e-08      -2.57564735e-04 
       0.00000000e+00       0.00000000e+00       0.00000000e+00 
       0.00000000e+00       0.00000000e+00       0.00000000e+00 
       0.00000000e+00       0.00000000e+00       0.00000000e+00 
       0.00000000e+00       0.00000000e+00       0.00000000e+00 
      -1.41569190e-05      -1.22944283e-07      -5.15155381e-04 
      -1.41569190e-05      -1.22944283e-07      -5.15155381e-04 
      -1.41569190e-05      -1.22944283e-07      -5.15155381e-04 
      -1.41569190e-05      -1.22944283e-07      -5.15155381e-04 
       0.00000000e+00       0.00000000e+00       0.00000000e+00 
       0.00000000e+00       0.00000000e+00       0.00000000e+00 
       0.00000000e+00       0.00000000e+00       0.00000000e+00 
       0.00000000e+00       0.00000000e+00       0.00000000e+00 
      -1.41569190e-05      -1.22944283e-07      -5.15155381e-04 
      -1.41569190e-05      -1.22944283e-07      -5.15155381e-04 
      -1.41569190e-05      -1.22944283e-07      -5.15155381e-04 
      -1.41569190e-05      -1.22944283e-07      -5.15155381e-04 
      -7.07845952e-06      -6.14721414e-08      -2.57577690e-04 
      -7.07845952e-06      -6.14721414e-08      -2.57577690e-04 
      -7.07845952e-06      -6.14721414e-08      -2.57577690e-04 
      -7.07845952e-06      -6.14721414e-08      -2.57577690e-04 
       0.00000000e+00       0.00000000e+00       0.00000000e+00 
       0.00000000e+00       0.00000000e+00       0.00000000e+00 
       0.00000000e+00       0.00000000e+00       0.00000000e+00 
       0.00000000e+00       0.00000000e+00       0.00000000e+00 
       1.39107506e-05      -1.22944949e-07      -5.15129470e-04 
       1.39107506e-05      -1.22944949e-07      -5.15129470e-04 
       1.39107506e-05      -1.22944949e-07      -5.15129470e-04 
       1.39107506e-05      -1.22944949e-07      -5.15129470e-04 
       0.00000000e+00       0.00000000e+00       0.00000000e+00 
       0.00000000e+00       0.00000000e+00       0.00000000e+00 
       0.00000000e+00       0.00000000e+00       0.00000000e+00 
       0.00000000e+00       0.00000000e+00       0.00000000e+00 
       1.39107506e-05      -1.22944949e-07      -5.15129470e-04 
       1.39107506e-05      -1.22944949e-07      -5.15129470e-04 
       1.39107506e-05      -1.22944949e-07      -5.15129470e-04 
       1.39107506e-05      -1.22944949e-07      -5.15129470e-04 
       6.95537529e-06      -6.14724747e-08      -2.57564735e-04 
       6.95537529e-06      -6.14724747e-08      -2.57564735e-04 
       6.95537529e-06      -6.14724747e-08      -2.57564735e-04 
       6.95537529e-06      -6.14724747e-08      -2.57564735e-04 
       0.00000000e+00       0.00000000e+00       0.00000000e+00 
       0.00000000e+00       0.00000000e+00       0.00000000e+00 
       0.00000000e+00       0.00000000e+00       0.00000000e+00 
       0.00000000e+00       0.00000000e+00       0.00000000e+00 
      -1.23064440e-07      -1.41567948e-05      -5.15155302e-04 
      -1.23064440e-07      -1.41567948e-05      -5.15155302e-04 
      -1.23064440e-07      -1.41567948e-05      -5.15155302e-04 
      -1.23064440e-07      -1.41567948e-05      -5.15155302e-04 
       0.00000000e+00       0.00000000e+00       0.00000000e+00 
       0.00000000e+00       0.00000000e+00       0.00000000e+00 
       0.00000000e+00       0.00000000e+00       0.00000000e+00 
       0.00000000e+00       0.00000000e+00       0.00000000e+00 
      -1.23064440e-07      -1.41567948e-05      -5.15155302e-04 
      -1.23064440e-07      -1.41567948e-05      -5.15155302e-04 
      -1.23064440e-07      -1.41567948e-05      -5.15155302e-04 
      -1.23064440e-07      -1.41567948e-05      -5.15155302e-04 
      -6.15322202e-08      -7.07839740e-06      -2.57577651e-04 
      -6.15322202e-08      -7.07839740e-06      -2.57577651e-04 
      -6.15322202e-08      -7.07839740e-06      -2.57577651e-04 
      -6.15322202e-08      -7.07839740e-06      -2.57577651e-04 
       0.00000000e+00       0.00000000e+00       0.00000000e+00 
       0.00000000e+00       0.00000000e+00       0.00000000e+00 
       0.00000000e+00       0.00000000e+00       0.00000000e+00 
       0.00000000e+00       0.00000000e+00       0.00000000e+00 
      -1.23065107e-07       1.39108667e-05      -5.15129417e-04 
      -1.23065107e-07       1.39108667e-05      -5.15129417e-04 
      -1.23065107e-07       1.39108667e-05      -5.15129417e-04 
      -1.23065107e-07       1.39108667e-05      -5.15129417e-04 
       0.00000000e+00       0.00000000e+00       0.00000000e+00 
       0.00000000e+00       0.00000000e+00       0.00000000e+00 
       0.00000000e+00       0.00000000e+00       0.00000000e+00 
       0.00000000e+00       0.00000000e+00       0.00000000e+00 
      -1.23065107e-07       1.39108667e-05      -5.15129417e-04 
      -1.23065107e-07       1.39108667e-05      -5.15129417e-04 
      -1.23065107e-07       1.39108667e-05      -5.15129417e-04 
      -1.23065107e-07       1.39108667e-05      -5.15129417e-04 
      -6.15325537e-08       6.95543335e-06      -2.57564709e-04 
      -6.15325537e-08       6.95543335e-06      -2.57564709e-04 
      -6.15325537e-08       6.95543335e-06      -2.57564709e-04 
      -6.15325537e-08       6.95543335e-06      -2.57564709e-04 
       0.00000000e+00       0.00000000e+00       0.00000000e+00 
       0.00000000e+00       0.00000000e+00       0.00000000e+00 
       0.00000000e+00       0.00000000e+00       0.00000000e+00 
       0.00000000e+00       0.00000000e+00       0.00000000e+00 
      -1.23064440e-07      -1.41567948e-05      -5.15155302e-04 
      -1.23064440e-07      -1.41567948e-05      -5.15155302e-04 
      -1.23064440e-07      -1.41567948e-05      -5.15155302e-04 
      -1.23064440e-07      -1.41567948e-05      -5.15155302e-04 
       0.00000000e+00       0.00000000e+00       0.00000000e+00 
       0.00000000e+00       0.00000000e+00       0.00000000e+00 
       0.00000000e+00       0.00000000e+00       0.00000000e+00 
       0.00000000e+00       0.00000000e+00       0.00000000e+00 
      -1.23064440e-07      -1.41567948e-05      -5.15155302e-04 
      -1.23064440e-07      -1.41567948e-05      -5.15155302e-04 
      -1.23064440e-07      -1.41567948e-05      -5.15155302e-04 
      -1.23064440e-07      -1.41567948e-05      -5.15155302e-04 
      -6.15322202e-08      -7.07839740e-06      -2.57577651e-04 
      -6.15322202e-08      -7.07839740e-06      -2.57577651e-04 
      -6.15322202e-08      -7.07839740e-06      -2.57577651e-04 
      -6.15322202e-08      -7.07839740e-06      -2.57577651e-04 
       0.00000000e+00       0.00000000e+00       0.00000000e+00 
       0.00000000e+00       0.00000000e+00       0.00000000e+00 
       0.00000000e+00       0.00000000e+00       0.00000000e+00 
       0.00000000e+00       0.00000000e+00       0.00000000e+00 
      -1.41569190e-05      -1.22944283e-07      -5.15155381e-04 
      -1.41569190e-05      -1.22944283e-07      -5.15155381e-04 
      -1.41569190e-05      -1.22944283e-07      -5.15155381e-04 
      -1.41569190e-05      -1.22944283e-07      -5.15155381e-04 
       0.00000000e+00       0.00000000e+00       0.00000000e+00 
       0.00000000e+00       0.00000000e+00       0.00000000e+00 
       0.00000000e+00       0.00000000e+00       0.00000000e+00 
       0.00000000e+00       0.00000000e+00       0.00000000e+00 
      -1.41569190e-05      -1.22944283e-07      -5.15155381e-04 
      -1.41569190e-05      -1.22944283e-07      -5.15155381e-04 
      -1.41569190e-05      -1.22944283e-07      -5.15155381e-04 
      -1.41569190e-05      -1.22944283e-07      -5.15155381e-04 
      -7.07845952e-06      -6.14721414e-08      -2.57577690e-04 
      -7.07845952e-06      -6.14721414e-08      -2.57577690e-04 
      -7.07845952e-06      -6.14721414e-08      -2.57577690e-04 
      -7.07845952e-06      -6.14721414e-08      -2.57577690e-04 
       0.00000000e+00       0.00000000e+00       0.00000000e+00 
       0.00000000e+00       0.00000000e+00       0.00000000e+00 
       0.00000000e+00       0.00000000e+00       0.00000000e+00 
       0.00000000e+00       0.00000000e+00       0.00000000e+00 
      -1.23065107e-07       1.39108667e-05      -5.15129417e-04 
      -1.23065107e-07       1.39108667e-05      -5.15129417e-04 
      -1.23065107e-07       1.39108667e-05      -5.15129417e-04 
      -1.23065107e-07       1.39108667e-05      -5.15129417e-04 
       0.00000000e+00       0.00000000e+00       0.00000000e+00 
       0.00000000e+00       0.00000000e+00       0.00000000e+00 
       0.00000000e+00       0.00000000e+00       0.00000000e+00 
       0.00000000e+00       0.00000000e+00       0.00000000e+00 
      -1.23065107e-07       1.39108667e-05      -5.15129417e-04 
      -1.23065107e-07       1.39108667e-05      -5.15129417e-04 
      -1.23065107e-07       1.39108667e-05      -5.15129417e-04 
      -1.23065107e-07       1.39108667e-05      -5.15129417e-04 
      -6.15325537e-08       6.95543335e-06      -2.57564709e-04 
      -6.15325537e-08       6.95543335e-06      -2.57564709e-04 
      -6.15325537e-08       6.95543335e-06      -2.57564709e-04 
      -6.15325537e-08       6.95543335e-06      -2.57564709e-04 
       0.00000000e+00       0.00000000e+00       0.00000000e+00 
       0.00000000e+00       0.00000000e+00       0.00000000e+00 
       0.00000000e+00       0.00000000e+00       0.00000000e+00 
       0.00000000e+00       0.00000000e+00       0.00000000e+00 
      -1.51389590e-04      -1.51422660e-04      -2.88551050e-03 
      -1.51389590e-04      -1.51422660e-04      -2.88551050e-03 
      -1.51389590e-04      -1.51422660e-04      -2.88551050e-03 
      -1.51389590e-04      -1.51422660e-04      -2.88551050e-03 
       0.00000000e+00       0.00000000e+00       0.00000000e+00 
       0.00000000e+00       0.00000000e+00       0.00000000e+00 
       0.00000000e+00       0.00000000e+00       0.00000000e+00 
       0.00000000e+00       0.00000000e+00       0.00000000e+00 
      -1.51389590e-04      -1.51422660e-04      -2.88551050e-03 
      -1.51389590e-04      -1.51422660e-04      -2.88551050e-03 
      -1.51389590e-04      -1.51422660e-04      -2.88551050e-03 
      -1.51389590e-04      -1.51422660e-04      -2.88551050e-03 
      -7.56947948e-05      -7.57113302e-05      -1.44275525e-03 
      -7.56947948e-05      -7.57113302e-05      -1.44275525e-03 
      -7.56947948e-05      -7.57113302e-05      -1.44275525e-03 
      -7.56947948e-05      -7.57113302e-05      -1.44275525e-03 
       0.00000000e+00       0.00000000e+00       0.00000000e+00 
       0.00000000e+00       0.00000000e+00       0.00000000e+00 
       0.00000000e+00       0.00000000e+00       0.00000000e+00 
       0.00000000e+00       0.00000000e+00       0.00000000e+00 
       1.51066490e-04      -1.51436336e-04      -2.88581839e-03 
       1.51066490e-04      -1.51436336e-04      -2.88581839e-03 
       1.51066490e-04      -1.51436336e-04      -2.88581839e-03 
       1.51066490e-04      -1.51436336e-04      -2.88581839e-03 
       0.00000000e+00       0.00000000e+00       0.00000000e+00 
       0.00000000e+00       0.00000000e+00       0.00000000e+00 
       0.00000000e+00       0.00000000e+00       0.00000000e+00 
       0.00000000e+00       0.00000000e+00       0.00000000e+00 
       1.51066490e-04      -1.51436336e-04      -2.88581839e-03 
       1.51066490e-04      -1.51436336e-04      -2.88581839e-03 
       1.51066490e-04      -1.51436336e-04      -2.88581839e-03 
       1.51066490e-04      -1.51436336e-04      -2.88581839e-03 
       7.55332452e-05      -7.57181680e-05      -1.44290920e-03 
       7.55332452e-05      -7.57181680e-05      -1.44290920e-03 
       7.55332452e-05      -7.57181680e-05      -1.44290920e-03 
       7.55332452e-05      -7.57181680e-05      -1.44290920e-03 
       0.00000000e+00       0.00000000e+00       0.00000000e+00 
       0.00000000e+00       0.00000000e+00       0.00000000e+00 
       0.00000000e+00       0.00000000e+00       0.00000000e+00 
       0.00000000e+00       0.00000000e+00       0.00000000e+00 
       1.51079953e-04       1.51113555e-04      -2.88612600e-03 
       1.51079953e-04       1.51113555e-04      -2.88612600e-03 
       1.51079953e-04       1.51113555e-04      -2.88612600e-03 
       1.51079953e-04       1.51113555e-04      -2.88612600e-03 
       0.00000000e+00       0.00000000e+00       0.00000000e+00 
       0.00000000e+00       0.00000000e+00       0.00000000e+00 
       0.00000000e+00       0.00000000e+00       0.00000000e+00 
       0.00000000e+00       0.00000000e+00       0.00000000e+00 
       1.51079953e-04       1.51113555e-04      -2.88612600e-03 
       1.51079953e-04       1.51113555e-04      -2.88612600e-03 
       1.51079953e-04       1.51113555e-04      -2.88612600e-03 
       1.51079953e-04       1.51113555e-04      -2.88612600e-03 
       7.55399767e-05       7.55567775e-05      -1.44306300e-03 
       7.55399767e-05       7.55567775e-05      -1.44306300e-03 
       7.55399767e-05       7.55567775e-05      -1.44306300e-03 
       7.55399767e-05       7.55567775e-05      -1.44306300e-03 
       0.00000000e+00       0.00000000e+00       0.00000000e+00 
       0.00000000e+00       0.00000000e+00       0.00000000e+00 
       0.00000000e+00       0.00000000e+00       0.00000000e+00 
       0.00000000e+00       0.00000000e+00       0.00000000e+00 
      -1.51403050e-04       1.51099877e-04      -2.88581811e-03 
      -1.51403050e-04       1.51099877e-04      -2.88581811e-03 
      -1.51403050e-04       1.51099877e-04      -2.88581811e-03 
      -1.51403050e-04       1.51099877e-04      -2.88581811e-03 
       0.00000000e+00       0.00000000e+00       0.00000000e+00 
       0.00000000e+00       0.00000000e+00       0.00000000e+00 
       0.00000000e+00       0.00000000e+00       0.00000000e+00 
       0.00000000e+00       0.00000000e+00       0.00000000e+00 
      -1.51403050e-04       1.51099877e-04      -2.88581811e-03 
      -1.51403050e-04       1.51099877e-04      -2.88581811e-03 
      -1.51403050e-04       1.51099877e-04      -2.88581811e-03 
      -1.51403050e-04       1.51099877e-04      -2.88581811e-03 
      -7.57015250e-05       7.55499383e-05      -1.44290906e-03 
      -7.57015250e-05       7.55499383e-05      -1.44290906e-03 
      -7.57015250e-05       7.55499383e-05      -1.44290906e-03 
      -7.57015250e-05       7.55499383e-05      -1.44290906e-03 
       1.39107506e-05      -1.22944949e-07      -5.15129470e-04 
       1.39107506e-05      -1.22944949e-07      -5.15129470e-04 
       1.39107506e-05      -1.22944949e-07      -5.15129470e-04 
       1.39107506e-05      -1.22944949e-07      -5.15129470e-04 
      -1.51403050e-04       1.51099877e-04      -2.88581811e-03 
      -1.51403050e-04       1.51099877e-04      -2.88581811e-03 
      -1.51403050e-04       1.51099877e-04      -2.88581811e-03 
      -1.51403050e-04       1.51099877e-04      -2.88581811e-03 
       1.39107506e-05      -1.22944949e-07      -5.15129470e-04 
       1.39107506e-05      -1.22944949e-07      -5.15129470e-04 
       1.39107506e-05      -1.22944949e-07      -5.15129470e-04 
       1.39107506e-05      -1.22944949e-07      -5.15129470e-04 
      -1.51403050e-04       1.51099877e-04      -2.88581811e-03 
      -1.51403050e-04       1.51099877e-04      -2.88581811e-03 
      -1.51403050e-04       1.51099877e-04      -2.88581811e-03 
      -1.51403050e-04       1.51099877e-04      -2.88581811e-03 
      -6.87461497e-05       7.54884658e-05      -1.70047379e-03 
      -6.87461497e-05       7.54884658e-05      -1.70047379e-03 
      -6.87461497e-05       7.54884658e-05      -1.70047379e-03 
      -6.87461497e-05       7.54884658e-05      -1.70047379e-03 
       1.39107506e-05      -1.22944949e-07      -5.15129470e-04 
       1.39107506e-05      -1.22944949e-07      -5.15129470e-04 
       1.39107506e-05      -1.22944949e-07      -5.15129470e-04 
       1.39107506e-05      -1.22944949e-07      -5.15129470e-04 
      -1.51389590e-04      -1.51422660e-04      -2.88551050e-03 
      -1.51389590e-04      -1.51422660e-04      -2.88551050e-03 
      -1.51389590e-04      -1.51422660e-04      -2.88551050e-03 
      -1.51389590e-04      -1.51422660e-04      -2.88551050e-03 
       1.39107506e-05      -1.22944949e-07      -5.15129470e-04 
       1.39107506e-05      -1.22944949e-07      -5.15129470e-04 
       1.39107506e-05      -1.22944949e-07      -5.15129470e-04 
       1.39107506e-05      -1.22944949e-07      -5.15129470e-04 
      -1.51389590e-04      -1.51422660e-04      -2.88551050e-03 
      -1.51389590e-04      -1.51422660e-04      -2.88551050e-03 
      -1.51389590e-04      -1.51422660e-04      -2.88551050e-03 
      -1.51389590e-04      -1.51422660e-04      -2.88551050e-03 
      -6.87394195e-05      -7.57728027e-05      -1.70031998e-03 
      -6.87394195e-05      -7.57728027e-05      -1.70031998e-03 
      -6.87394195e-05      -7.57728027e-05      -1.70031998e-03 
      -6.87394195e-05      -7.57728027e-05      -1.70031998e-03 
      -1.41569190e-05      -1.22944283e-07      -5.15155381e-04 
      -1.41569190e-05      -1.22944283e-07      -5.15155381e-04 
      -1.41569190e-05      -1.22944283e-07      -5.15155381e-04 
      -1.41569190e-05      -1.22944283e-07      -5.15155381e-04 
       1.51079953e-04       1.51113555e-04      -2.88612600e-03 
       1.51079953e-04       1.51113555e-04      -2.88612600e-03 
       1.51079953e-04       1.51113555e-04      -2.88612600e-03 
       1.51079953e-04       1.51113555e-04      -2.88612600e-03 
      -1.41569190e-05      -1.22944283e-07      -5.15155381e-04 
      -1.41569190e-05      -1.22944283e-07      -5.15155381e-04 
      -1.41569190e-05      -1.22944283e-07      -5.15155381e-04 
      -1.41569190e-05      -1.22944283e-07      -5.15155381e-04 
       1.51079953e-04       1.51113555e-04      -2.88612600e-03 
       1.51079953e-04       1.51113555e-04      -2.88612600e-03 
       1.51079953e-04       1.51113555e-04      -2.88612600e-03 
       1.51079953e-04       1.51113555e-04      -2.88612600e-03 
       6.84615172e-05       7.54953053e-05      -1.70064069e-03 
       6.84615172e-05       7.54953053e-05      -1.70064069e-03 
       6.84615172e-05       7.54953053e-05      -1.70064069e-03 
       6.84615172e-05       7.54953053e-05      -1.70064069e-03 
      -1.41569190e-05      -1.22944283e-07      -5.15155381e-04 
      -1.41569190e-05      -1.22944283e-07      -5.15155381e-04 
      -1.41569190e-05      -1.22944283e-07      -5.15155381e-04 
      -1.41569190e-05      -1.22944283e-07      -5.15155381e-04 
      -1.23065107e-07       1.39108667e-05      -5.15129417e-04 
      -1.23065107e-07       1.39108667e-05      -5.15129417e-04 