# vtk DataFile Version 2.0
./output/Static_Tower/Static_Tower_0004.vtk
ASCII
DATASET UNSTRUCTURED_GRID

POINTS 13260 float
      -4.335799e+00       4.312526e+00      -9.534265e-03 
      -4.309007e+00       4.315349e+00      -9.534265e-03 
      -4.311001e+00       4.334274e+00       9.534265e-03 
      -4.337793e+00       4.331451e+00       9.534265e-03 
      -3.880281e+00      -1.087413e-02       4.328993e+00 
      -3.853489e+00      -8.051361e-03       4.328993e+00 
      -3.855483e+00       1.087380e-02       4.348062e+00 
      -3.882275e+00       8.051032e-03       4.348062e+00 
      -4.321990e+00       4.310018e+00      -1.348349e-02 
      -4.304456e+00       4.325396e+00       0.000000e+00 
      -4.324810e+00       4.336782e+00       1.348349e-02 
      -4.342344e+00       4.321404e+00       0.000000e+00 
      -3.866472e+00      -1.338228e-02       4.325044e+00 
      -3.848937e+00       1.995835e-03       4.338528e+00 
      -3.869292e+00       1.338195e-02       4.352011e+00 
      -3.886826e+00      -1.996164e-03       4.338528e+00 
      -4.108040e+00       2.150826e+00       2.159730e+00 
      -4.081248e+00       2.153649e+00       2.159730e+00 
      -4.083242e+00       2.172574e+00       2.178798e+00 
      -4.110034e+00       2.169751e+00       2.178798e+00 
       4.309007e+00       4.315349e+00      -9.534265e-03 
       4.335799e+00       4.312526e+00      -9.534265e-03 
       4.337793e+00       4.331451e+00       9.534265e-03 
       4.311001e+00       4.334274e+00       9.534265e-03 
       3.853489e+00      -8.051360e-03       4.328993e+00 
       3.880280e+00      -1.087413e-02       4.328993e+00 
       3.882274e+00       8.051031e-03       4.348062e+00 
       3.855483e+00       1.087380e-02       4.348062e+00 
       4.321990e+00       4.310018e+00      -1.348349e-02 
       4.342344e+00       4.321404e+00       0.000000e+00 
       4.324810e+00       4.336782e+00       1.348349e-02 
       4.304456e+00       4.325396e+00       0.000000e+00 
       3.866472e+00      -1.338227e-02       4.325044e+00 
       3.886826e+00      -1.996166e-03       4.338528e+00 
       3.869291e+00       1.338195e-02       4.352011e+00 
       3.848937e+00       1.995837e-03       4.338528e+00 
       4.081248e+00       2.153649e+00       2.159730e+00 
       4.108039e+00       2.150826e+00       2.159730e+00 
       4.110033e+00       2.169751e+00       2.178798e+00 
       4.083242e+00       2.172574e+00       2.178798e+00 
      -4.309007e+00      -4.315349e+00      -9.534264e-03 
      -4.335799e+00      -4.312526e+00      -9.534264e-03 
      -4.337793e+00      -4.331451e+00       9.534264e-03 
      -4.311001e+00      -4.334274e+00       9.534264e-03 
      -3.853489e+00       8.051032e-03       4.328993e+00 
      -3.880281e+00       1.087380e-02       4.328993e+00 
      -3.882275e+00      -8.051361e-03       4.348062e+00 
      -3.855483e+00      -1.087413e-02       4.348062e+00 
      -4.321990e+00      -4.310018e+00      -1.348349e-02 
      -4.342344e+00      -4.321404e+00       0.000000e+00 
      -4.324810e+00      -4.336782e+00       1.348349e-02 
      -4.304456e+00      -4.325396e+00       0.000000e+00 
      -3.866472e+00       1.338195e-02       4.325044e+00 
      -3.886826e+00       1.995836e-03       4.338528e+00 
      -3.869292e+00      -1.338228e-02       4.352011e+00 
      -3.848937e+00      -1.996164e-03       4.338528e+00 
      -4.081248e+00      -2.153649e+00       2.159730e+00 
      -4.108040e+00      -2.150826e+00       2.159730e+00 
      -4.110034e+00      -2.169751e+00       2.178798e+00 
      -4.083242e+00      -2.172574e+00       2.178798e+00 
      -4.315349e+00       4.309007e+00      -9.534265e-03 
      -4.312526e+00       4.335799e+00      -9.534265e-03 
      -4.331451e+00       4.337793e+00       9.534265e-03 
      -4.334274e+00       4.311001e+00       9.534265e-03 
       8.051031e-03       3.853489e+00       4.328993e+00 
       1.087380e-02       3.880280e+00       4.328993e+00 
      -8.051360e-03       3.882274e+00       4.348062e+00 
      -1.087413e-02       3.855483e+00       4.348062e+00 
      -4.310018e+00       4.321990e+00      -1.348349e-02 
      -4.321404e+00       4.342344e+00       0.000000e+00 
      -4.336782e+00       4.324810e+00       1.348349e-02 
      -4.325396e+00       4.304456e+00       0.000000e+00 
       1.338195e-02       3.866472e+00       4.325044e+00 
       1.995837e-03       3.886826e+00       4.338528e+00 
      -1.338228e-02       3.869291e+00       4.352011e+00 
      -1.996166e-03       3.848937e+00       4.338528e+00 
      -2.153649e+00       4.081248e+00       2.159730e+00 
      -2.150826e+00       4.108039e+00       2.159730e+00 
      -2.169751e+00       4.110033e+00       2.178798e+00 
      -2.172574e+00       4.083242e+00       2.178798e+00 
      -4.312526e+00      -4.335799e+00      -9.534264e-03 
      -4.315349e+00      -4.309007e+00      -9.534264e-03 
      -4.334274e+00      -4.311001e+00       9.534264e-03 
      -4.331451e+00      -4.337793e+00       9.534264e-03 
       1.087380e-02      -3.880281e+00       4.328993e+00 
       8.051032e-03      -3.853489e+00       4.328993e+00 
      -1.087413e-02      -3.855483e+00       4.348062e+00 
      -8.051361e-03      -3.882275e+00       4.348062e+00 
      -4.310018e+00      -4.321990e+00      -1.348349e-02 
      -4.325396e+00      -4.304456e+00       0.000000e+00 
      -4.336782e+00      -4.324810e+00       1.348349e-02 
      -4.321404e+00      -4.342344e+00       0.000000e+00 
       1.338195e-02      -3.866472e+00       4.325044e+00 
      -1.996164e-03      -3.848937e+00       4.338528e+00 
      -1.338228e-02      -3.869292e+00       4.352011e+00 
       1.995835e-03      -3.886826e+00       4.338528e+00 
      -2.150826e+00      -4.108040e+00       2.159730e+00 
      -2.153649e+00      -4.081248e+00       2.159730e+00 
      -2.172574e+00      -4.083242e+00       2.178798e+00 
      -2.169751e+00      -4.110034e+00       2.178798e+00 
       4.312526e+00       4.335799e+00      -9.534265e-03 
       4.315349e+00       4.309007e+00      -9.534265e-03 
       4.334274e+00       4.311001e+00       9.534265e-03 
       4.331451e+00       4.337793e+00       9.534265e-03 
      -1.087413e-02       3.880280e+00       4.328993e+00 
      -8.051360e-03       3.853489e+00       4.328993e+00 
       1.087380e-02       3.855483e+00       4.348062e+00 
       8.051031e-03       3.882274e+00       4.348062e+00 
       4.310018e+00       4.321990e+00      -1.348349e-02 
       4.325396e+00       4.304456e+00       0.000000e+00 
       4.336782e+00       4.324810e+00       1.348349e-02 
       4.321404e+00       4.342344e+00       0.000000e+00 
      -1.338228e-02       3.866472e+00       4.325044e+00 
       1.995837e-03       3.848937e+00       4.338528e+00 
       1.338195e-02       3.869291e+00       4.352011e+00 
      -1.996166e-03       3.886826e+00       4.338528e+00 
       2.150826e+00       4.108039e+00       2.159730e+00 
       2.153649e+00       4.081248e+00       2.159730e+00 
       2.172574e+00       4.083242e+00       2.178798e+00 
       2.169751e+00       4.110033e+00       2.178798e+00 
       4.335799e+00      -4.312526e+00      -9.534265e-03 
       4.309007e+00      -4.315349e+00      -9.534265e-03 
       4.311001e+00      -4.334274e+00       9.534265e-03 
       4.337793e+00      -4.331451e+00       9.534265e-03 
       3.880280e+00       1.087380e-02       4.328993e+00 
       3.853489e+00       8.051031e-03       4.328993e+00 
       3.855483e+00      -1.087413e-02       4.348062e+00 
       3.882274e+00      -8.051360e-03       4.348062e+00 
       4.321990e+00      -4.310018e+00      -1.348349e-02 
       4.304456e+00      -4.325396e+00       0.000000e+00 
       4.324810e+00      -4.336782e+00       1.348349e-02 
       4.342344e+00      -4.321404e+00       0.000000e+00 
       3.866472e+00       1.338195e-02       4.325044e+00 
       3.848937e+00      -1.996166e-03       4.338528e+00 
       3.869291e+00      -1.338228e-02       4.352011e+00 
       3.886826e+00       1.995837e-03       4.338528e+00 
       4.108039e+00      -2.150826e+00       2.159730e+00 
       4.081248e+00      -2.153649e+00       2.159730e+00 
       4.083242e+00      -2.172574e+00       2.178798e+00 
       4.110033e+00      -2.169751e+00       2.178798e+00 
       4.315349e+00      -4.309007e+00      -9.534265e-03 
       4.312526e+00      -4.335799e+00      -9.534265e-03 
       4.331451e+00      -4.337793e+00       9.534265e-03 
       4.334274e+00      -4.311001e+00       9.534265e-03 
      -8.051361e-03      -3.853489e+00       4.328993e+00 
      -1.087413e-02      -3.880281e+00       4.328993e+00 
       8.051032e-03      -3.882275e+00       4.348062e+00 
       1.087380e-02      -3.855483e+00       4.348062e+00 
       4.310018e+00      -4.321990e+00      -1.348349e-02 
       4.321404e+00      -4.342344e+00       0.000000e+00 
       4.336782e+00      -4.324810e+00       1.348349e-02 
       4.325396e+00      -4.304456e+00       0.000000e+00 
      -1.338228e-02      -3.866472e+00       4.325044e+00 
      -1.996164e-03      -3.886826e+00       4.338528e+00 
       1.338195e-02      -3.869292e+00       4.352011e+00 
       1.995835e-03      -3.848937e+00       4.338528e+00 
       2.153649e+00      -4.081248e+00       2.159730e+00 
       2.150826e+00      -4.108040e+00       2.159730e+00 
       2.169751e+00      -4.110034e+00       2.178798e+00 
       2.172574e+00      -4.083242e+00       2.178798e+00 
      -4.290298e+00      -4.323581e+00      -3.457396e-03 
      -4.323581e+00      -4.290298e+00      -3.457396e-03 
      -4.356502e+00      -4.323219e+00       3.457396e-03 
      -4.323219e+00      -4.356502e+00       3.457396e-03 
      -3.834993e+00      -3.868276e+00       4.331951e+00 
      -3.868275e+00      -3.834993e+00       4.331951e+00 
      -3.901197e+00      -3.867915e+00       4.338866e+00 
[...]
POINT_DATA     13260 
VECTORS Displacements float
       0.00000000e+00       0.00000000e+00       0.00000000e+00 
       0.00000000e+00       0.00000000e+00       0.00000000e+00 
       0.00000000e+00       0.00000000e+00       0.00000000e+00 
       0.00000000e+00       0.00000000e+00       0.00000000e+00 
       1.81513778e-05      -1.64373695e-07      -6.72368965e-04 
       1.81513778e-05      -1.64373695e-07      -6.72368965e-04 
       1.81513778e-05      -1.64373695e-07      -6.72368965e-04 
       1.81513778e-05      -1.64373695e-07      -6.72368965e-04 
       0.00000000e+00       0.00000000e+00       0.00000000e+00 
       0.00000000e+00       0.00000000e+00       0.00000000e+00 
       0.00000000e+00       0.00000000e+00       0.00000000e+00 
       0.00000000e+00       0.00000000e+00       0.00000000e+00 
       1.81513778e-05      -1.64373695e-07      -6.72368965e-04 
       1.81513778e-05      -1.64373695e-07      -6.72368965e-04 
       1.81513778e-05      -1.64373695e-07      -6.72368965e-04 
       1.81513778e-05      -1.64373695e-07      -6.72368965e-04 
       9.07568891e-06      -8.21868476e-08      -3.36184483e-04 
       9.07568891e-06      -8.21868476e-08      -3.36184483e-04 
       9.07568891e-06      -8.21868476e-08      -3.36184483e-04 
       9.07568891e-06      -8.21868476e-08      -3.36184483e-04 
       0.00000000e+00       0.00000000e+00       0.00000000e+00 
       0.00000000e+00       0.00000000e+00       0.00000000e+00 
       0.00000000e+00       0.00000000e+00       0.00000000e+00 
       0.00000000e+00       0.00000000e+00       0.00000000e+00 
      -1.84806025e-05      -1.64372827e-07      -6.72403644e-04 
      -1.84806025e-05      -1.64372827e-07      -6.72403644e-04 
      -1.84806025e-05      -1.64372827e-07      -6.72403644e-04 
      -1.84806025e-05      -1.64372827e-07      -6.72403644e-04 
       0.00000000e+00       0.00000000e+00       0.00000000e+00 
       0.00000000e+00       0.00000000e+00       0.00000000e+00 
       0.00000000e+00       0.00000000e+00       0.00000000e+00 
       0.00000000e+00       0.00000000e+00       0.00000000e+00 
      -1.84806025e-05      -1.64372827e-07      -6.72403644e-04 
      -1.84806025e-05      -1.64372827e-07      -6.72403644e-04 
      -1.84806025e-05      -1.64372827e-07      -6.72403644e-04 
      -1.84806025e-05      -1.64372827e-07      -6.72403644e-04 
      -9.24030124e-06      -8.21864135e-08      -3.36201822e-04 
      -9.24030124e-06      -8.21864135e-08      -3.36201822e-04 
      -9.24030124e-06      -8.21864135e-08      -3.36201822e-04 
      -9.24030124e-06      -8.21864135e-08      -3.36201822e-04 
       0.00000000e+00       0.00000000e+00       0.00000000e+00 
       0.00000000e+00       0.00000000e+00       0.00000000e+00 
       0.00000000e+00       0.00000000e+00       0.00000000e+00 
       0.00000000e+00       0.00000000e+00       0.00000000e+00 
       1.81513778e-05      -1.64373695e-07      -6.72368965e-04 
       1.81513778e-05      -1.64373695e-07      -6.72368965e-04 
       1.81513778e-05      -1.64373695e-07      -6.72368965e-04 
       1.81513778e-05      -1.64373695e-07      -6.72368965e-04 
       0.00000000e+00       0.00000000e+00       0.00000000e+00 
       0.00000000e+00       0.00000000e+00       0.00000000e+00 
       0.00000000e+00       0.00000000e+00       0.00000000e+00 
       0.00000000e+00       0.00000000e+00       0.00000000e+00 
       1.81513778e-05      -1.64373695e-07      -6.72368965e-04 
       1.81513778e-05      -1.64373695e-07      -6.72368965e-04 
       1.81513778e-05      -1.64373695e-07      -6.72368965e-04 
       1.81513778e-05      -1.64373695e-07      -6.72368965e-04 
       9.07568891e-06      -8.21868476e-08      -3.36184483e-04 
       9.07568891e-06      -8.21868476e-08      -3.36184483e-04 
       9.07568891e-06      -8.21868476e-08      -3.36184483e-04 
       9.07568891e-06      -8.21868476e-08      -3.36184483e-04 
       0.00000000e+00       0.00000000e+00       0.00000000e+00 
       0.00000000e+00       0.00000000e+00       0.00000000e+00 
       0.00000000e+00       0.00000000e+00       0.00000000e+00 
       0.00000000e+00       0.00000000e+00       0.00000000e+00 
      -1.64578033e-07      -1.84803605e-05      -6.72403032e-04 
      -1.64578033e-07      -1.84803605e-05      -6.72403032e-04 
      -1.64578033e-07      -1.84803605e-05      -6.72403032e-04 
      -1.64578033e-07      -1.84803605e-05      -6.72403032e-04 
       0.00000000e+00       0.00000000e+00       0.00000000e+00 
       0.00000000e+00       0.00000000e+00       0.00000000e+00 
       0.00000000e+00       0.00000000e+00       0.00000000e+00 
       0.00000000e+00       0.00000000e+00       0.00000000e+00 
      -1.64578033e-07      -1.84803605e-05      -6.72403032e-04 
      -1.64578033e-07      -1.84803605e-05      -6.72403032e-04 
      -1.64578033e-07      -1.84803605e-05      -6.72403032e-04 
      -1.64578033e-07      -1.84803605e-05      -6.72403032e-04 
      -8.22890166e-08      -9.24018026e-06      -3.36201516e-04 
      -8.22890166e-08      -9.24018026e-06      -3.36201516e-04 
      -8.22890166e-08      -9.24018026e-06      -3.36201516e-04 
      -8.22890166e-08      -9.24018026e-06      -3.36201516e-04 
       0.00000000e+00       0.00000000e+00       0.00000000e+00 
       0.00000000e+00       0.00000000e+00       0.00000000e+00 
       0.00000000e+00       0.00000000e+00       0.00000000e+00 
       0.00000000e+00       0.00000000e+00       0.00000000e+00 
      -1.64578902e-07       1.81515464e-05      -6.72368397e-04 
      -1.64578902e-07       1.81515464e-05      -6.72368397e-04 
      -1.64578902e-07       1.81515464e-05      -6.72368397e-04 
      -1.64578902e-07       1.81515464e-05      -6.72368397e-04 
       0.00000000e+00       0.00000000e+00       0.00000000e+00 
       0.00000000e+00       0.00000000e+00       0.00000000e+00 
       0.00000000e+00       0.00000000e+00       0.00000000e+00 
       0.00000000e+00       0.00000000e+00       0.00000000e+00 
      -1.64578902e-07       1.81515464e-05      -6.72368397e-04 
      -1.64578902e-07       1.81515464e-05      -6.72368397e-04 
      -1.64578902e-07       1.81515464e-05      -6.72368397e-04 
      -1.64578902e-07       1.81515464e-05      -6.72368397e-04 
      -8.22894510e-08       9.07577321e-06      -3.36184198e-04 
      -8.22894510e-08       9.07577321e-06      -3.36184198e-04 
      -8.22894510e-08       9.07577321e-06      -3.36184198e-04 
      -8.22894510e-08       9.07577321e-06      -3.36184198e-04 
       0.00000000e+00       0.00000000e+00       0.00000000e+00 
       0.00000000e+00       0.00000000e+00       0.00000000e+00 
       0.00000000e+00       0.00000000e+00       0.00000000e+00 
       0.00000000e+00       0.00000000e+00       0.00000000e+00 
      -1.64578033e-07      -1.84803605e-05      -6.72403032e-04 
      -1.64578033e-07      -1.84803605e-05      -6.72403032e-04 
      -1.64578033e-07      -1.84803605e-05      -6.72403032e-04 
      -1.64578033e-07      -1.84803605e-05      -6.72403032e-04 
       0.00000000e+00       0.00000000e+00       0.00000000e+00 
       0.00000000e+00       0.00000000e+00       0.00000000e+00 
       0.00000000e+00       0.00000000e+00       0.00000000e+00 
       0.00000000e+00       0.00000000e+00       0.00000000e+00 
      -1.64578033e-07      -1.84803605e-05      -6.72403032e-04 
      -1.64578033e-07      -1.84803605e-05      -6.72403032e-04 
      -1.64578033e-07      -1.84803605e-05      -6.72403032e-04 
      -1.64578033e-07      -1.84803605e-05      -6.72403032e-04 
      -8.22890166e-08      -9.24018026e-06      -3.36201516e-04 
      -8.22890166e-08      -9.24018026e-06      -3.36201516e-04 
      -8.22890166e-08      -9.24018026e-06      -3.36201516e-04 
      -8.22890166e-08      -9.24018026e-06      -3.36201516e-04 
       0.00000000e+00       0.00000000e+00       0.00000000e+00 
       0.00000000e+00       0.00000000e+00       0.00000000e+00 
       0.00000000e+00       0.00000000e+00       0.00000000e+00 
       0.00000000e+00       0.00000000e+00       0.00000000e+00 
      -1.84806025e-05      -1.64372827e-07      -6.72403644e-04 
      -1.84806025e-05      -1.64372827e-07      -6.72403644e-04 
      -1.84806025e-05      -1.64372827e-07      -6.72403644e-04 
      -1.84806025e-05      -1.64372827e-07      -6.72403644e-04 
       0.00000000e+00       0.00000000e+00       0.00000000e+00 
       0.00000000e+00       0.00000000e+00       0.00000000e+00 
       0.00000000e+00       0.00000000e+00       0.00000000e+00 
       0.00000000e+00       0.00000000e+00       0.00000000e+00 
      -1.84806025e-05      -1.64372827e-07      -6.72403644e-04 
      -1.84806025e-05      -1.64372827e-07      -6.72403644e-04 
      -1.84806025e-05      -1.64372827e-07      -6.72403644e-04 
      -1.84806025e-05      -1.64372827e-07      -6.72403644e-04 
      -9.24030124e-06      -8.21864135e-08      -3.36201822e-04 
      -9.24030124e-06      -8.21864135e-08      -3.36201822e-04 
      -9.24030124e-06      -8.21864135e-08      -3.36201822e-04 
      -9.24030124e-06      -8.21864135e-08      -3.36201822e-04 
       0.00000000e+00       0.00000000e+00       0.00000000e+00 
       0.00000000e+00       0.00000000e+00       0.00000000e+00 
       0.00000000e+00       0.00000000e+00       0.00000000e+00 
       0.00000000e+00       0.00000000e+00       0.00000000e+00 
      -1.64578902e-07       1.81515464e-05      -6.72368397e-04 
      -1.64578902e-07       1.81515464e-05      -6.72368397e-04 
      -1.64578902e-07       1.81515464e-05      -6.72368397e-04 
      -1.64578902e-07       1.81515464e-05      -6.72368397e-04 
       0.00000000e+00       0.00000000e+00       0.00000000e+00 
       0.00000000e+00       0.00000000e+00       0.00000000e+00 
       0.00000000e+00       0.00000000e+00       0.00000000e+00 
       0.00000000e+00       0.00000000e+00       0.00000000e+00 
      -1.64578902e-07       1.81515464e-05      -6.72368397e-04 
      -1.64578902e-07       1.81515464e-05      -6.72368397e-04 
      -1.64578902e-07       1.81515464e-05      -6.72368397e-04 
      -1.64578902e-07       1.81515464e-05      -6.72368397e-04 
      -8.22894510e-08       9.07577321e-06      -3.36184198e-04 
      -8.22894510e-08       9.07577321e-06      -3.36184198e-04 
      -8.22894510e-08       9.07577321e-06      -3.36184198e-04 
      -8.22894510e-08       9.07577321e-06      -3.36184198e-04 
       0.00000000e+00       0.00000000e+00       0.00000000e+00 
       0.00000000e+00       0.00000000e+00       0.00000000e+00 
       0.00000000e+00       0.00000000e+00       0.00000000e+00 
       0.00000000e+00       0.00000000e+00       0.00000000e+00 
      -1.94927925e-04      -1.95156023e-04      -3.79113941e-03 
      -1.94927925e-04      -1.95156023e-04      -3.79113941e-03 
      -1.94927925e-04      -1.95156023e-04      -3.79113941e-03 
      -1.94927925e-04      -1.95156023e-04      -3.79113941e-03 
       0.00000000e+00       0.00000000e+00       0.00000000e+00 
       0.00000000e+00       0.00000000e+00       0.00000000e+00 
       0.00000000e+00       0.00000000e+00       0.00000000e+00 
       0.00000000e+00       0.00000000e+00       0.00000000e+00 
      -1.94927925e-04      -1.95156023e-04      -3.79113941e-03 
      -1.94927925e-04      -1.95156023e-04      -3.79113941e-03 
      -1.94927925e-04      -1.95156023e-04      -3.79113941e-03 
      -1.94927925e-04      -1.95156023e-04      -3.79113941e-03 
      -9.74639626e-05      -9.75780113e-05      -1.89556971e-03 
      -9.74639626e-05      -9.75780113e-05      -1.89556971e-03 
      -9.74639626e-05      -9.75780113e-05      -1.89556971e-03 
      -9.74639626e-05      -9.75780113e-05      -1.89556971e-03 
       0.00000000e+00       0.00000000e+00       0.00000000e+00 
       0.00000000e+00       0.00000000e+00       0.00000000e+00 
       0.00000000e+00       0.00000000e+00       0.00000000e+00 
       0.00000000e+00       0.00000000e+00       0.00000000e+00 
       1.94495759e-04      -1.95173605e-04      -3.79155026e-03 
       1.94495759e-04      -1.95173605e-04      -3.79155026e-03 
       1.94495759e-04      -1.95173605e-04      -3.79155026e-03 
       1.94495759e-04      -1.95173605e-04      -3.79155026e-03 
       0.00000000e+00       0.00000000e+00       0.00000000e+00 
       0.00000000e+00       0.00000000e+00       0.00000000e+00 
       0.00000000e+00       0.00000000e+00       0.00000000e+00 
       0.00000000e+00       0.00000000e+00       0.00000000e+00 
       1.94495759e-04      -1.95173605e-04      -3.79155026e-03 
       1.94495759e-04      -1.95173605e-04      -3.79155026e-03 
       1.94495759e-04      -1.95173605e-04      -3.79155026e-03 
       1.94495759e-04      -1.95173605e-04      -3.79155026e-03 
       9.72478794e-05      -9.75868027e-05      -1.89577513e-03 
       9.72478794e-05      -9.75868027e-05      -1.89577513e-03 
       9.72478794e-05      -9.75868027e-05      -1.89577513e-03 
       9.72478794e-05      -9.75868027e-05      -1.89577513e-03 
       0.00000000e+00       0.00000000e+00       0.00000000e+00 
       0.00000000e+00       0.00000000e+00       0.00000000e+00 
       0.00000000e+00       0.00000000e+00       0.00000000e+00 
       0.00000000e+00       0.00000000e+00       0.00000000e+00 
       1.94513001e-04       1.94741981e-04      -3.79196062e-03 
       1.94513001e-04       1.94741981e-04      -3.79196062e-03 
       1.94513001e-04       1.94741981e-04      -3.79196062e-03 
       1.94513001e-04       1.94741981e-04      -3.79196062e-03 
       0.00000000e+00       0.00000000e+00       0.00000000e+00 
       0.00000000e+00       0.00000000e+00       0.00000000e+00 
       0.00000000e+00       0.00000000e+00       0.00000000e+00 
       0.00000000e+00       0.00000000e+00       0.00000000e+00 
       1.94513001e-04       1.94741981e-04      -3.79196062e-03 
       1.94513001e-04       1.94741981e-04      -3.79196062e-03 
       1.94513001e-04       1.94741981e-04      -3.79196062e-03 
       1.94513001e-04       1.94741981e-04      -3.79196062e-03 
       9.72565007e-05       9.73709906e-05      -1.89598031e-03 
       9.72565007e-05       9.73709906e-05      -1.89598031e-03 
       9.72565007e-05       9.73709906e-05      -1.89598031e-03 
       9.72565007e-05       9.73709906e-05      -1.89598031e-03 
       0.00000000e+00       0.00000000e+00       0.00000000e+00 
       0.00000000e+00       0.00000000e+00       0.00000000e+00 
       0.00000000e+00       0.00000000e+00       0.00000000e+00 
       0.00000000e+00       0.00000000e+00       0.00000000e+00 
      -1.94945164e-04       1.94724395e-04      -3.79154978e-03 
      -1.94945164e-04       1.94724395e-04      -3.79154978e-03 
      -1.94945164e-04       1.94724395e-04      -3.79154978e-03 
      -1.94945164e-04       1.94724395e-04      -3.79154978e-03 
       0.00000000e+00       0.00000000e+00       0.00000000e+00 
       0.00000000e+00       0.00000000e+00       0.00000000e+00 
       0.00000000e+00       0.00000000e+00       0.00000000e+00 
       0.00000000e+00       0.00000000e+00       0.00000000e+00 
      -1.94945164e-04       1.94724395e-04      -3.79154978e-03 
      -1.94945164e-04       1.94724395e-04      -3.79154978e-03 
      -1.94945164e-04       1.94724395e-04      -3.79154978e-03 
      -1.94945164e-04       1.94724395e-04      -3.79154978e-03 
      -9.74725821e-05       9.73621975e-05      -1.89577489e-03 
      -9.74725821e-05       9.73621975e-05      -1.89577489e-03 
      -9.74725821e-05       9.73621975e-05      -1.89577489e-03 
      -9.74725821e-05       9.73621975e-05      -1.89577489e-03 
       1.81513778e-05      -1.64373695e-07      -6.72368965e-04 
       1.81513778e-05      -1.64373695e-07      -6.72368965e-04 
       1.81513778e-05      -1.64373695e-07      -6.72368965e-04 
       1.81513778e-05      -1.64373695e-07      -6.72368965e-04 
      -1.94945164e-04       1.94724395e-04      -3.79154978e-03 
      -1.94945164e-04       1.94724395e-04      -3.79154978e-03 
      -1.94945164e-04       1.94724395e-04      -3.79154978e-03 
      -1.94945164e-04       1.94724395e-04      -3.79154978e-03 
       1.81513778e-05      -1.64373695e-07      -6.72368965e-04 
       1.81513778e-05      -1.64373695e-07      -6.72368965e-04 
       1.81513778e-05      -1.64373695e-07      -6.72368965e-04 
       1.81513778e-05      -1.64373695e-07      -6.72368965e-04 
      -1.94945164e-04       1.94724395e-04      -3.79154978e-03 
      -1.94945164e-04       1.94724395e-04      -3.79154978e-03 
      -1.94945164e-04       1.94724395e-04      -3.79154978e-03 
      -1.94945164e-04       1.94724395e-04      -3.79154978e-03 
      -8.83968932e-05       9.72800107e-05      -2.23195937e-03 
      -8.83968932e-05       9.72800107e-05      -2.23195937e-03 
      -8.83968932e-05       9.72800107e-05      -2.23195937e-03 
      -8.83968932e-05       9.72800107e-05      -2.23195937e-03 
       1.81513778e-05      -1.64373695e-07      -6.72368965e-04 
       1.81513778e-05      -1.64373695e-07      -6.72368965e-04 
       1.81513778e-05      -1.64373695e-07      -6.72368965e-04 
       1.81513778e-05      -1.64373695e-07      -6.72368965e-04 
      -1.94927925e-04      -1.95156023e-04      -3.79113941e-03 
      -1.94927925e-04      -1.95156023e-04      -3.79113941e-03 
      -1.94927925e-04      -1.95156023e-04      -3.79113941e-03 
      -1.94927925e-04      -1.95156023e-04      -3.79113941e-03 
       1.81513778e-05      -1.64373695e-07      -6.72368965e-04 
       1.81513778e-05      -1.64373695e-07      -6.72368965e-04 
       1.81513778e-05      -1.64373695e-07      -6.72368965e-04 
       1.81513778e-05      -1.64373695e-07      -6.72368965e-04 
      -1.94927925e-04      -1.95156023e-04      -3.79113941e-03 
      -1.94927925e-04      -1.95156023e-04      -3.79113941e-03 
      -1.94927925e-04      -1.95156023e-04      -3.79113941e-03 
      -1.94927925e-04      -1.95156023e-04      -3.79113941e-03 
      -8.83882737e-05      -9.76601982e-05      -2.23175419e-03 
      -8.83882737e-05      -9.76601982e-05      -2.23175419e-03 
      -8.83882737e-05      -9.76601982e-05      -2.23175419e-03 
      -8.83882737e-05      -9.76601982e-05      -2.23175419e-03 
      -1.84806025e-05      -1.64372827e-07      -6.72403644e-04 
      -1.84806025e-05      -1.64372827e-07      -6.72403644e-04 
      -1.84806025e-05      -1.64372827e-07      -6.72403644e-04 
      -1.84806025e-05      -1.64372827e-07      -6.72403644e-04 
       1.94513001e-04       1.94741981e-04      -3.79196062e-03 
       1.94513001e-04       1.94741981e-04      -3.79196062e-03 
       1.94513001e-04       1.94741981e-04      -3.79196062e-03 
       1.94513001e-04       1.94741981e-04      -3.79196062e-03 
      -1.84806025e-05      -1.64372827e-07      -6.72403644e-04 
      -1.84806025e-05      -1.64372827e-07      -6.72403644e-04 
      -1.84806025e-05      -1.64372827e-07      -6.72403644e-04 
      -1.84806025e-05      -1.64372827e-07      -6.72403644e-04 
       1.94513001e-04       1.94741981e-04      -3.79196062e-03 
       1.94513001e-04       1.94741981e-04      -3.79196062e-03 
       1.94513001e-04       1.94741981e-04      -3.79196062e-03 
       1.94513001e-04       1.94741981e-04      -3.79196062e-03 
       8.80161994e-05       9.72888042e-05      -2.23218213e-03 
       8.80161994e-05       9.72888042e-05      -2.23218213e-03 
       8.80161994e-05       9.72888042e-05      -2.23218213e-03 
       8.80161994e-05       9.72888042e-05      -2.23218213e-03 
      -1.84806025e-05      -1.64372827e-07      -6.72403644e-04 
      -1.84806025e-05      -1.64372827e-07      -6.72403644e-04 
      -1.84806025e-05      -1.64372827e-07      -6.72403644e-04 
      -1.84806025e-05      -1.64372827e-07      -6.72403644e-04 
      -1.64578902e-07       1.81515464e-05      -6.72368397e-04 
      -1.64578902e-07       1.81515464e-05      -6.72368397e-04 