# vtk DataFile Version 2.0
./output/Static_Tower/Static_Tower_0004.vtk
ASCII
DATASET UNSTRUCTURED_GRID

POINTS 13260 float
      -4.427465e+00       4.404288e+00      -9.630290e-03 
      -4.400660e+00       4.406970e+00      -9.630290e-03 
      -4.402535e+00       4.425712e+00       9.630290e-03 
      -4.429340e+00       4.423030e+00       9.630290e-03 
      -3.985791e+00      -1.071182e-02       4.329486e+00 
      -3.958985e+00      -8.030169e-03       4.329486e+00 
      -3.960860e+00       1.071180e-02       4.348746e+00 
      -3.987666e+00       8.030149e-03       4.348746e+00 
      -4.413674e+00       4.401747e+00      -1.361929e-02 
      -4.396045e+00       4.416896e+00       0.000000e+00 
      -4.416326e+00       4.428253e+00       1.361929e-02 
      -4.433955e+00       4.413104e+00       0.000000e+00 
      -3.972000e+00      -1.325258e-02       4.325497e+00 
      -3.954371e+00       1.896200e-03       4.339116e+00 
      -3.974651e+00       1.325256e-02       4.352735e+00 
      -3.992280e+00      -1.896221e-03       4.339116e+00 
      -4.206628e+00       2.196788e+00       2.159928e+00 
      -4.179822e+00       2.199470e+00       2.159928e+00 
      -4.181697e+00       2.218212e+00       2.179188e+00 
      -4.208503e+00       2.215530e+00       2.179188e+00 
       4.400661e+00       4.406967e+00      -9.630129e-03 
       4.427467e+00       4.404290e+00      -9.630129e-03 
       4.429339e+00       4.423033e+00       9.630129e-03 
       4.402533e+00       4.425710e+00       9.630129e-03 
       3.959733e+00      -8.032733e-03       4.329562e+00 
       3.986539e+00      -1.070989e-02       4.329562e+00 
       3.988411e+00       8.032712e-03       4.348822e+00 
       3.961605e+00       1.070987e-02       4.348822e+00 
       4.413676e+00       4.401747e+00      -1.361906e-02 
       4.433955e+00       4.413107e+00       0.000000e+00 
       4.416324e+00       4.428253e+00       1.361906e-02 
       4.396045e+00       4.416893e+00       0.000000e+00 
       3.972748e+00      -1.325303e-02       4.325573e+00 
       3.993027e+00      -1.893049e-03       4.339192e+00 
       3.975395e+00       1.325301e-02       4.352811e+00 
       3.955117e+00       1.893028e-03       4.339192e+00 
       4.180197e+00       2.199467e+00       2.159966e+00 
       4.207003e+00       2.196790e+00       2.159966e+00 
       4.208875e+00       2.215533e+00       2.179226e+00 
       4.182069e+00       2.218210e+00       2.179226e+00 
      -4.400660e+00      -4.406970e+00      -9.630290e-03 
      -4.427465e+00      -4.404288e+00      -9.630290e-03 
      -4.429340e+00      -4.423030e+00       9.630290e-03 
      -4.402535e+00      -4.425712e+00       9.630290e-03 
      -3.958985e+00       8.030149e-03       4.329486e+00 
      -3.985791e+00       1.071180e-02       4.329486e+00 
      -3.987666e+00      -8.030169e-03       4.348746e+00 
      -3.960860e+00      -1.071182e-02       4.348746e+00 
      -4.413674e+00      -4.401747e+00      -1.361929e-02 
      -4.433955e+00      -4.413104e+00       0.000000e+00 
      -4.416326e+00      -4.428253e+00       1.361929e-02 
      -4.396045e+00      -4.416896e+00       0.000000e+00 
      -3.972000e+00       1.325256e-02       4.325497e+00 
      -3.992280e+00       1.896200e-03       4.339116e+00 
      -3.974651e+00      -1.325258e-02       4.352735e+00 
      -3.954371e+00      -1.896221e-03       4.339116e+00 
      -4.179822e+00      -2.199470e+00       2.159928e+00 
      -4.206628e+00      -2.196788e+00       2.159928e+00 
      -4.208503e+00      -2.215530e+00       2.179188e+00 
      -4.181697e+00      -2.218212e+00       2.179188e+00 
      -4.406969e+00       4.400660e+00      -9.630593e-03 
      -4.404290e+00       4.427466e+00      -9.630593e-03 
      -4.423031e+00       4.429340e+00       9.630593e-03 
      -4.425710e+00       4.402534e+00       9.630593e-03 
       8.394851e-03       3.959359e+00       4.329523e+00 
       1.107404e-02       3.986165e+00       4.329523e+00 
      -7.667483e-03       3.988038e+00       4.348784e+00 
      -1.034667e-02       3.961232e+00       4.348784e+00 
      -4.401748e+00       4.413675e+00      -1.361972e-02 
      -4.413106e+00       4.433955e+00       0.000000e+00 
      -4.428252e+00       4.416325e+00       1.361972e-02 
      -4.416894e+00       4.396045e+00       0.000000e+00 
       1.361594e-02       3.972374e+00       4.325534e+00 
       2.258154e-03       3.992654e+00       4.339154e+00 
      -1.288857e-02       3.975023e+00       4.352774e+00 
      -1.530786e-03       3.954744e+00       4.339154e+00 
      -2.199287e+00       4.180010e+00       2.159946e+00 
      -2.196608e+00       4.206816e+00       2.159946e+00 
      -2.215349e+00       4.208689e+00       2.179207e+00 
      -2.218029e+00       4.181883e+00       2.179207e+00 
      -4.404290e+00      -4.427466e+00      -9.630593e-03 
      -4.406969e+00      -4.400660e+00      -9.630593e-03 
      -4.425710e+00      -4.402534e+00       9.630593e-03 
      -4.423031e+00      -4.429340e+00       9.630593e-03 
       1.107404e-02      -3.986165e+00       4.329523e+00 
       8.394851e-03      -3.959359e+00       4.329523e+00 
      -1.034667e-02      -3.961232e+00       4.348784e+00 
      -7.667483e-03      -3.988038e+00       4.348784e+00 
      -4.401748e+00      -4.413675e+00      -1.361972e-02 
      -4.416894e+00      -4.396045e+00       0.000000e+00 
      -4.428252e+00      -4.416325e+00       1.361972e-02 
      -4.413106e+00      -4.433955e+00       0.000000e+00 
       1.361594e-02      -3.972374e+00       4.325534e+00 
      -1.530786e-03      -3.954744e+00       4.339154e+00 
      -1.288857e-02      -3.975023e+00       4.352774e+00 
       2.258154e-03      -3.992654e+00       4.339154e+00 
      -2.196608e+00      -4.206816e+00       2.159946e+00 
      -2.199287e+00      -4.180010e+00       2.159946e+00 
      -2.218029e+00      -4.181883e+00       2.179207e+00 
      -2.215349e+00      -4.208689e+00       2.179207e+00 
       4.404289e+00       4.427466e+00      -9.629825e-03 
       4.406968e+00       4.400660e+00      -9.629825e-03 
       4.425711e+00       4.402534e+00       9.629825e-03 
       4.423032e+00       4.429340e+00       9.629825e-03 
      -1.034765e-02       3.986165e+00       4.329524e+00 
      -7.668031e-03       3.959359e+00       4.329524e+00 
       1.107502e-02       3.961233e+00       4.348784e+00 
       8.395398e-03       3.988039e+00       4.348784e+00 
       4.401747e+00       4.413675e+00      -1.361863e-02 
       4.416895e+00       4.396045e+00       0.000000e+00 
       4.428253e+00       4.416325e+00       1.361863e-02 
       4.413105e+00       4.433955e+00       0.000000e+00 
      -1.288965e-02       3.972374e+00       4.325535e+00 
       2.258463e-03       3.954744e+00       4.339154e+00 
       1.361702e-02       3.975024e+00       4.352772e+00 
      -1.531095e-03       3.992654e+00       4.339154e+00 
       2.196971e+00       4.206816e+00       2.159947e+00 
       2.199650e+00       4.180010e+00       2.159947e+00 
       2.218393e+00       4.181883e+00       2.179207e+00 
       2.215714e+00       4.208689e+00       2.179207e+00 
       4.427467e+00      -4.404290e+00      -9.630129e-03 
       4.400661e+00      -4.406967e+00      -9.630129e-03 
       4.402533e+00      -4.425710e+00       9.630129e-03 
       4.429339e+00      -4.423033e+00       9.630129e-03 
       3.986539e+00       1.070987e-02       4.329562e+00 
       3.959733e+00       8.032712e-03       4.329562e+00 
       3.961605e+00      -1.070989e-02       4.348822e+00 
       3.988411e+00      -8.032733e-03       4.348822e+00 
       4.413676e+00      -4.401747e+00      -1.361906e-02 
       4.396045e+00      -4.416893e+00       0.000000e+00 
       4.416324e+00      -4.428253e+00       1.361906e-02 
       4.433955e+00      -4.413107e+00       0.000000e+00 
       3.972748e+00       1.325301e-02       4.325573e+00 
       3.955117e+00      -1.893049e-03       4.339192e+00 
       3.975395e+00      -1.325303e-02       4.352811e+00 
       3.993027e+00       1.893028e-03       4.339192e+00 
       4.207003e+00      -2.196790e+00       2.159966e+00 
       4.180197e+00      -2.199467e+00       2.159966e+00 
       4.182069e+00      -2.218210e+00       2.179226e+00 
       4.208875e+00      -2.215533e+00       2.179226e+00 
       4.406968e+00      -4.400660e+00      -9.629825e-03 
       4.404289e+00      -4.427466e+00      -9.629825e-03 
       4.423032e+00      -4.429340e+00       9.629825e-03 
       4.425711e+00      -4.402534e+00       9.629825e-03 
      -7.668031e-03      -3.959359e+00       4.329524e+00 
      -1.034765e-02      -3.986165e+00       4.329524e+00 
       8.395398e-03      -3.988039e+00       4.348784e+00 
       1.107502e-02      -3.961233e+00       4.348784e+00 
       4.401747e+00      -4.413675e+00      -1.361863e-02 
       4.413105e+00      -4.433955e+00       0.000000e+00 
       4.428253e+00      -4.416325e+00       1.361863e-02 
       4.416895e+00      -4.396045e+00       0.000000e+00 
      -1.288966e-02      -3.972374e+00       4.325535e+00 
      -1.531095e-03      -3.992654e+00       4.339154e+00 
       1.361702e-02      -3.975024e+00       4.352772e+00 
       2.258463e-03      -3.954744e+00       4.339154e+00 
       2.199650e+00      -4.180010e+00       2.159947e+00 
       2.196971e+00      -4.206816e+00       2.159947e+00 
       2.215714e+00      -4.208689e+00       2.179207e+00 
       2.218393e+00      -4.181883e+00       2.179207e+00 
      -4.381887e+00      -4.415187e+00      -3.351749e-03 
      -4.415152e+00      -4.381887e+00      -3.351749e-03 
      -4.448113e+00      -4.414813e+00       3.351749e-03 
      -4.414848e+00      -4.448113e+00       3.351749e-03 
      -3.940124e+00      -3.973882e+00       4.336327e+00 
      -3.973389e+00      -3.940582e+00       4.336327e+00 
      -4.006349e+00      -3.973508e+00       4.343031e+00 
[...]
POINT_DATA     13260 
VECTORS Displacements float
       0.00000000e+00       0.00000000e+00       0.00000000e+00 
       0.00000000e+00       0.00000000e+00       0.00000000e+00 
       0.00000000e+00       0.00000000e+00       0.00000000e+00 
       0.00000000e+00       0.00000000e+00       0.00000000e+00 
       3.74290085e-04      -1.01689545e-08      -8.41112529e-05 
       3.74290085e-04      -1.01689545e-08      -8.41112529e-05 
       3.74290085e-04      -1.01689545e-08      -8.41112529e-05 
       3.74290085e-04      -1.01689545e-08      -8.41112529e-05 
       0.00000000e+00       0.00000000e+00       0.00000000e+00 
       0.00000000e+00       0.00000000e+00       0.00000000e+00 
       0.00000000e+00       0.00000000e+00       0.00000000e+00 
       0.00000000e+00       0.00000000e+00       0.00000000e+00 
       3.74290085e-04      -1.01689545e-08      -8.41112529e-05 
       3.74290085e-04      -1.01689545e-08      -8.41112529e-05 
       3.74290085e-04      -1.01689545e-08      -8.41112529e-05 
       3.74290085e-04      -1.01689545e-08      -8.41112529e-05 
       1.87145042e-04      -5.08447723e-09      -4.20556264e-05 
       1.87145042e-04      -5.08447723e-09      -4.20556264e-05 
       1.87145042e-04      -5.08447723e-09      -4.20556264e-05 
       1.87145042e-04      -5.08447723e-09      -4.20556264e-05 
       0.00000000e+00       0.00000000e+00       0.00000000e+00 
       0.00000000e+00       0.00000000e+00       0.00000000e+00 
       0.00000000e+00       0.00000000e+00       0.00000000e+00 
       0.00000000e+00       0.00000000e+00       0.00000000e+00 
       3.71864116e-04      -1.04063588e-08      -8.24111941e-06 
       3.71864116e-04      -1.04063588e-08      -8.24111941e-06 
       3.71864116e-04      -1.04063588e-08      -8.24111941e-06 
       3.71864116e-04      -1.04063588e-08      -8.24111941e-06 
       0.00000000e+00       0.00000000e+00       0.00000000e+00 
       0.00000000e+00       0.00000000e+00       0.00000000e+00 
       0.00000000e+00       0.00000000e+00       0.00000000e+00 
       0.00000000e+00       0.00000000e+00       0.00000000e+00 
       3.71864116e-04      -1.04063588e-08      -8.24111941e-06 
       3.71864116e-04      -1.04063588e-08      -8.24111941e-06 
       3.71864116e-04      -1.04063588e-08      -8.24111941e-06 
       3.71864116e-04      -1.04063588e-08      -8.24111941e-06 
       1.85932058e-04      -5.20317940e-09      -4.12055970e-06 
       1.85932058e-04      -5.20317940e-09      -4.12055970e-06 
       1.85932058e-04      -5.20317940e-09      -4.12055970e-06 
       1.85932058e-04      -5.20317940e-09      -4.12055970e-06 
       0.00000000e+00       0.00000000e+00       0.00000000e+00 
       0.00000000e+00       0.00000000e+00       0.00000000e+00 
       0.00000000e+00       0.00000000e+00       0.00000000e+00 
       0.00000000e+00       0.00000000e+00       0.00000000e+00 
       3.74290085e-04      -1.01689545e-08      -8.41112529e-05 
       3.74290085e-04      -1.01689545e-08      -8.41112529e-05 
       3.74290085e-04      -1.01689545e-08      -8.41112529e-05 
       3.74290085e-04      -1.01689545e-08      -8.41112529e-05 
       0.00000000e+00       0.00000000e+00       0.00000000e+00 
       0.00000000e+00       0.00000000e+00       0.00000000e+00 
       0.00000000e+00       0.00000000e+00       0.00000000e+00 
       0.00000000e+00       0.00000000e+00       0.00000000e+00 
       3.74290085e-04      -1.01689545e-08      -8.41112529e-05 
       3.74290085e-04      -1.01689545e-08      -8.41112529e-05 
       3.74290085e-04      -1.01689545e-08      -8.41112529e-05 
       3.74290085e-04      -1.01689545e-08      -8.41112529e-05 
       1.87145042e-04      -5.08447723e-09      -4.20556264e-05 
       1.87145042e-04      -5.08447723e-09      -4.20556264e-05 
       1.87145042e-04      -5.08447723e-09      -4.20556264e-05 
       1.87145042e-04      -5.08447723e-09      -4.20556264e-05 
       0.00000000e+00       0.00000000e+00       0.00000000e+00 
       0.00000000e+00       0.00000000e+00       0.00000000e+00 
       0.00000000e+00       0.00000000e+00       0.00000000e+00 
       0.00000000e+00       0.00000000e+00       0.00000000e+00 
       3.63683824e-04      -1.22613309e-06      -4.62026385e-05 
       3.63683824e-04      -1.22613309e-06      -4.62026385e-05 
       3.63683824e-04      -1.22613309e-06      -4.62026385e-05 
       3.63683824e-04      -1.22613309e-06      -4.62026385e-05 
       0.00000000e+00       0.00000000e+00       0.00000000e+00 
       0.00000000e+00       0.00000000e+00       0.00000000e+00 
       0.00000000e+00       0.00000000e+00       0.00000000e+00 
       0.00000000e+00       0.00000000e+00       0.00000000e+00 
       3.63683824e-04      -1.22613309e-06      -4.62026385e-05 
       3.63683824e-04      -1.22613309e-06      -4.62026385e-05 
       3.63683824e-04      -1.22613309e-06      -4.62026385e-05 
       3.63683824e-04      -1.22613309e-06      -4.62026385e-05 
       1.81841912e-04      -6.13066547e-07      -2.31013193e-05 
       1.81841912e-04      -6.13066547e-07      -2.31013193e-05 
       1.81841912e-04      -6.13066547e-07      -2.31013193e-05 
       1.81841912e-04      -6.13066547e-07      -2.31013193e-05 
       0.00000000e+00       0.00000000e+00       0.00000000e+00 
       0.00000000e+00       0.00000000e+00       0.00000000e+00 
       0.00000000e+00       0.00000000e+00       0.00000000e+00 
       0.00000000e+00       0.00000000e+00       0.00000000e+00 
       3.63683625e-04       1.20555748e-06      -4.62005455e-05 
       3.63683625e-04       1.20555748e-06      -4.62005455e-05 
       3.63683625e-04       1.20555748e-06      -4.62005455e-05 
       3.63683625e-04       1.20555748e-06      -4.62005455e-05 
       0.00000000e+00       0.00000000e+00       0.00000000e+00 
       0.00000000e+00       0.00000000e+00       0.00000000e+00 
       0.00000000e+00       0.00000000e+00       0.00000000e+00 
       0.00000000e+00       0.00000000e+00       0.00000000e+00 
       3.63683625e-04       1.20555748e-06      -4.62005455e-05 
       3.63683625e-04       1.20555748e-06      -4.62005455e-05 
       3.63683625e-04       1.20555748e-06      -4.62005455e-05 
       3.63683625e-04       1.20555748e-06      -4.62005455e-05 
       1.81841812e-04       6.02778740e-07      -2.31002728e-05 
       1.81841812e-04       6.02778740e-07      -2.31002728e-05 
       1.81841812e-04       6.02778740e-07      -2.31002728e-05 
       1.81841812e-04       6.02778740e-07      -2.31002728e-05 
       0.00000000e+00       0.00000000e+00       0.00000000e+00 
       0.00000000e+00       0.00000000e+00       0.00000000e+00 
       0.00000000e+00       0.00000000e+00       0.00000000e+00 
       0.00000000e+00       0.00000000e+00       0.00000000e+00 
       3.63683824e-04      -1.22613309e-06      -4.62026385e-05 
       3.63683824e-04      -1.22613309e-06      -4.62026385e-05 
       3.63683824e-04      -1.22613309e-06      -4.62026385e-05 
       3.63683824e-04      -1.22613309e-06      -4.62026385e-05 
       0.00000000e+00       0.00000000e+00       0.00000000e+00 
       0.00000000e+00       0.00000000e+00       0.00000000e+00 
       0.00000000e+00       0.00000000e+00       0.00000000e+00 
       0.00000000e+00       0.00000000e+00       0.00000000e+00 
       3.63683824e-04      -1.22613309e-06      -4.62026385e-05 
       3.63683824e-04      -1.22613309e-06      -4.62026385e-05 
       3.63683824e-04      -1.22613309e-06      -4.62026385e-05 
       3.63683824e-04      -1.22613309e-06      -4.62026385e-05 
       1.81841912e-04      -6.13066547e-07      -2.31013193e-05 
       1.81841912e-04      -6.13066547e-07      -2.31013193e-05 
       1.81841912e-04      -6.13066547e-07      -2.31013193e-05 
       1.81841912e-04      -6.13066547e-07      -2.31013193e-05 
       0.00000000e+00       0.00000000e+00       0.00000000e+00 
       0.00000000e+00       0.00000000e+00       0.00000000e+00 
       0.00000000e+00       0.00000000e+00       0.00000000e+00 
       0.00000000e+00       0.00000000e+00       0.00000000e+00 
       3.71864116e-04      -1.04063588e-08      -8.24111941e-06 
       3.71864116e-04      -1.04063588e-08      -8.24111941e-06 
       3.71864116e-04      -1.04063588e-08      -8.24111941e-06 
       3.71864116e-04      -1.04063588e-08      -8.24111941e-06 
       0.00000000e+00       0.00000000e+00       0.00000000e+00 
       0.00000000e+00       0.00000000e+00       0.00000000e+00 
       0.00000000e+00       0.00000000e+00       0.00000000e+00 
       0.00000000e+00       0.00000000e+00       0.00000000e+00 
       3.71864116e-04      -1.04063588e-08      -8.24111941e-06 
       3.71864116e-04      -1.04063588e-08      -8.24111941e-06 
       3.71864116e-04      -1.04063588e-08      -8.24111941e-06 
       3.71864116e-04      -1.04063588e-08      -8.24111941e-06 
       1.85932058e-04      -5.20317940e-09      -4.12055970e-06 
       1.85932058e-04      -5.20317940e-09      -4.12055970e-06 
       1.85932058e-04      -5.20317940e-09      -4.12055970e-06 
       1.85932058e-04      -5.20317940e-09      -4.12055970e-06 
       0.00000000e+00       0.00000000e+00       0.00000000e+00 
       0.00000000e+00       0.00000000e+00       0.00000000e+00 
       0.00000000e+00       0.00000000e+00       0.00000000e+00 
       0.00000000e+00       0.00000000e+00       0.00000000e+00 
       3.63683625e-04       1.20555748e-06      -4.62005455e-05 
       3.63683625e-04       1.20555748e-06      -4.62005455e-05 
       3.63683625e-04       1.20555748e-06      -4.62005455e-05 
       3.63683625e-04       1.20555748e-06      -4.62005455e-05 
       0.00000000e+00       0.00000000e+00       0.00000000e+00 
       0.00000000e+00       0.00000000e+00       0.00000000e+00 
       0.00000000e+00       0.00000000e+00       0.00000000e+00 
       0.00000000e+00       0.00000000e+00       0.00000000e+00 
       3.63683625e-04       1.20555748e-06      -4.62005455e-05 
       3.63683625e-04       1.20555748e-06      -4.62005455e-05 
       3.63683625e-04       1.20555748e-06      -4.62005455e-05 
       3.63683625e-04       1.20555748e-06      -4.62005455e-05 
       1.81841812e-04       6.02778740e-07      -2.31002728e-05 
       1.81841812e-04       6.02778740e-07      -2.31002728e-05 
       1.81841812e-04       6.02778740e-07      -2.31002728e-05 
       1.81841812e-04       6.02778740e-07      -2.31002728e-05 
       0.00000000e+00       0.00000000e+00       0.00000000e+00 
       0.00000000e+00       0.00000000e+00       0.00000000e+00 
       0.00000000e+00       0.00000000e+00       0.00000000e+00 
       0.00000000e+00       0.00000000e+00       0.00000000e+00 
       4.63191143e-04       4.90039570e-06       4.79146376e-04 
       4.63191143e-04       4.90039570e-06       4.79146376e-04 
       4.63191143e-04       4.90039570e-06       4.79146376e-04 
       4.63191143e-04       4.90039570e-06       4.79146376e-04 
       0.00000000e+00       0.00000000e+00       0.00000000e+00 
       0.00000000e+00       0.00000000e+00       0.00000000e+00 
       0.00000000e+00       0.00000000e+00       0.00000000e+00 
       0.00000000e+00       0.00000000e+00       0.00000000e+00 
       4.63191143e-04       4.90039570e-06       4.79146376e-04 
       4.63191143e-04       4.90039570e-06       4.79146376e-04 
       4.63191143e-04       4.90039570e-06       4.79146376e-04 
       4.63191143e-04       4.90039570e-06       4.79146376e-04 
       2.31595572e-04       2.45019785e-06       2.39573188e-04 
       2.31595572e-04       2.45019785e-06       2.39573188e-04 
       2.31595572e-04       2.45019785e-06       2.39573188e-04 
       2.31595572e-04       2.45019785e-06       2.39573188e-04 
       0.00000000e+00       0.00000000e+00       0.00000000e+00 
       0.00000000e+00       0.00000000e+00       0.00000000e+00 
       0.00000000e+00       0.00000000e+00       0.00000000e+00 
       0.00000000e+00       0.00000000e+00       0.00000000e+00 
       4.86550534e-04      -2.78419216e-05      -8.30024567e-04 
       4.86550534e-04      -2.78419216e-05      -8.30024567e-04 
       4.86550534e-04      -2.78419216e-05      -8.30024567e-04 
       4.86550534e-04      -2.78419216e-05      -8.30024567e-04 
       0.00000000e+00       0.00000000e+00       0.00000000e+00 
       0.00000000e+00       0.00000000e+00       0.00000000e+00 
       0.00000000e+00       0.00000000e+00       0.00000000e+00 
       0.00000000e+00       0.00000000e+00       0.00000000e+00 
       4.86550534e-04      -2.78419216e-05      -8.30024567e-04 
       4.86550534e-04      -2.78419216e-05      -8.30024567e-04 
       4.86550534e-04      -2.78419216e-05      -8.30024567e-04 
       4.86550534e-04      -2.78419216e-05      -8.30024567e-04 
       2.43275267e-04      -1.39209608e-05      -4.15012284e-04 
       2.43275267e-04      -1.39209608e-05      -4.15012284e-04 
       2.43275267e-04      -1.39209608e-05      -4.15012284e-04 
       2.43275267e-04      -1.39209608e-05      -4.15012284e-04 
       0.00000000e+00       0.00000000e+00       0.00000000e+00 
       0.00000000e+00       0.00000000e+00       0.00000000e+00 
       0.00000000e+00       0.00000000e+00       0.00000000e+00 
       0.00000000e+00       0.00000000e+00       0.00000000e+00 
       4.86552003e-04       2.78143458e-05      -8.30051409e-04 
       4.86552003e-04       2.78143458e-05      -8.30051409e-04 
       4.86552003e-04       2.78143458e-05      -8.30051409e-04 
       4.86552003e-04       2.78143458e-05      -8.30051409e-04 
       0.00000000e+00       0.00000000e+00       0.00000000e+00 
       0.00000000e+00       0.00000000e+00       0.00000000e+00 
       0.00000000e+00       0.00000000e+00       0.00000000e+00 
       0.00000000e+00       0.00000000e+00       0.00000000e+00 
       4.86552003e-04       2.78143458e-05      -8.30051409e-04 
       4.86552003e-04       2.78143458e-05      -8.30051409e-04 
       4.86552003e-04       2.78143458e-05      -8.30051409e-04 
       4.86552003e-04       2.78143458e-05      -8.30051409e-04 
       2.43276001e-04       1.39071729e-05      -4.15025705e-04 
       2.43276001e-04       1.39071729e-05      -4.15025705e-04 
       2.43276001e-04       1.39071729e-05      -4.15025705e-04 
       2.43276001e-04       1.39071729e-05      -4.15025705e-04 
       0.00000000e+00       0.00000000e+00       0.00000000e+00 
       0.00000000e+00       0.00000000e+00       0.00000000e+00 
       0.00000000e+00       0.00000000e+00       0.00000000e+00 
       0.00000000e+00       0.00000000e+00       0.00000000e+00 
       4.63190167e-04      -4.92730663e-06       4.79119586e-04 
       4.63190167e-04      -4.92730663e-06       4.79119586e-04 
       4.63190167e-04      -4.92730663e-06       4.79119586e-04 
       4.63190167e-04      -4.92730663e-06       4.79119586e-04 
       0.00000000e+00       0.00000000e+00       0.00000000e+00 
       0.00000000e+00       0.00000000e+00       0.00000000e+00 
       0.00000000e+00       0.00000000e+00       0.00000000e+00 
       0.00000000e+00       0.00000000e+00       0.00000000e+00 
       4.63190167e-04      -4.92730663e-06       4.79119586e-04 
       4.63190167e-04      -4.92730663e-06       4.79119586e-04 
       4.63190167e-04      -4.92730663e-06       4.79119586e-04 
       4.63190167e-04      -4.92730663e-06       4.79119586e-04 
       2.31595084e-04      -2.46365332e-06       2.39559793e-04 
       2.31595084e-04      -2.46365332e-06       2.39559793e-04 
       2.31595084e-04      -2.46365332e-06       2.39559793e-04 
       2.31595084e-04      -2.46365332e-06       2.39559793e-04 
       3.74290085e-04      -1.01689545e-08      -8.41112529e-05 
       3.74290085e-04      -1.01689545e-08      -8.41112529e-05 
       3.74290085e-04      -1.01689545e-08      -8.41112529e-05 
       3.74290085e-04      -1.01689545e-08      -8.41112529e-05 
       4.63190167e-04      -4.92730663e-06       4.79119586e-04 
       4.63190167e-04      -4.92730663e-06       4.79119586e-04 
       4.63190167e-04      -4.92730663e-06       4.79119586e-04 
       4.63190167e-04      -4.92730663e-06       4.79119586e-04 
       3.74290085e-04      -1.01689545e-08      -8.41112529e-05 
       3.74290085e-04      -1.01689545e-08      -8.41112529e-05 
       3.74290085e-04      -1.01689545e-08      -8.41112529e-05 
       3.74290085e-04      -1.01689545e-08      -8.41112529e-05 
       4.63190167e-04      -4.92730663e-06       4.79119586e-04 
       4.63190167e-04      -4.92730663e-06       4.79119586e-04 
       4.63190167e-04      -4.92730663e-06       4.79119586e-04 
       4.63190167e-04      -4.92730663e-06       4.79119586e-04 
       4.18740126e-04      -2.46873779e-06       1.97504167e-04 
       4.18740126e-04      -2.46873779e-06       1.97504167e-04 
       4.18740126e-04      -2.46873779e-06       1.97504167e-04 
       4.18740126e-04      -2.46873779e-06       1.97504167e-04 
       3.74290085e-04      -1.01689545e-08      -8.41112529e-05 
       3.74290085e-04      -1.01689545e-08      -8.41112529e-05 
       3.74290085e-04      -1.01689545e-08      -8.41112529e-05 
       3.74290085e-04      -1.01689545e-08      -8.41112529e-05 
       4.63191143e-04       4.90039570e-06       4.79146376e-04 
       4.63191143e-04       4.90039570e-06       4.79146376e-04 
       4.63191143e-04       4.90039570e-06       4.79146376e-04 
       4.63191143e-04       4.90039570e-06       4.79146376e-04 
       3.74290085e-04      -1.01689545e-08      -8.41112529e-05 
       3.74290085e-04      -1.01689545e-08      -8.41112529e-05 
       3.74290085e-04      -1.01689545e-08      -8.41112529e-05 
       3.74290085e-04      -1.01689545e-08      -8.41112529e-05 
       4.63191143e-04       4.90039570e-06       4.79146376e-04 
       4.63191143e-04       4.90039570e-06       4.79146376e-04 
       4.63191143e-04       4.90039570e-06       4.79146376e-04 
       4.63191143e-04       4.90039570e-06       4.79146376e-04 
       4.18740614e-04       2.44511337e-06       1.97517562e-04 
       4.18740614e-04       2.44511337e-06       1.97517562e-04 
       4.18740614e-04       2.44511337e-06       1.97517562e-04 
       4.18740614e-04       2.44511337e-06       1.97517562e-04 
       3.71864116e-04      -1.04063588e-08      -8.24111941e-06 
       3.71864116e-04      -1.04063588e-08      -8.24111941e-06 
       3.71864116e-04      -1.04063588e-08      -8.24111941e-06 
       3.71864116e-04      -1.04063588e-08      -8.24111941e-06 
       4.86552003e-04       2.78143458e-05      -8.30051409e-04 
       4.86552003e-04       2.78143458e-05      -8.30051409e-04 
       4.86552003e-04       2.78143458e-05      -8.30051409e-04 
       4.86552003e-04       2.78143458e-05      -8.30051409e-04 
       3.71864116e-04      -1.04063588e-08      -8.24111941e-06 
       3.71864116e-04      -1.04063588e-08      -8.24111941e-06 
       3.71864116e-04      -1.04063588e-08      -8.24111941e-06 
       3.71864116e-04      -1.04063588e-08      -8.24111941e-06 
       4.86552003e-04       2.78143458e-05      -8.30051409e-04 
       4.86552003e-04       2.78143458e-05      -8.30051409e-04 
       4.86552003e-04       2.78143458e-05      -8.30051409e-04 
       4.86552003e-04       2.78143458e-05      -8.30051409e-04 
       4.29208059e-04       1.39019697e-05      -4.19146264e-04 
       4.29208059e-04       1.39019697e-05      -4.19146264e-04 
       4.29208059e-04       1.39019697e-05      -4.19146264e-04 
       4.29208059e-04       1.39019697e-05      -4.19146264e-04 
       3.71864116e-04      -1.04063588e-08      -8.24111941e-06 
       3.71864116e-04      -1.04063588e-08      -8.24111941e-06 
       3.71864116e-04      -1.04063588e-08      -8.24111941e-06 
       3.71864116e-04      -1.04063588e-08      -8.24111941e-06 
       3.63683625e-04       1.20555748e-06      -4.62005455e-05 
       3.63683625e-04       1.20555748e-06      -4.62005455e-05 