# vtk DataFile Version 2.0
./output/Static_Tower/Static_Tower_0010.vtk
ASCII
DATASET UNSTRUCTURED_GRID

POINTS 13260 float
      -4.335799e+00       4.312527e+00      -9.535304e-03 
      -4.309007e+00       4.315350e+00      -9.535304e-03 
      -4.311001e+00       4.334273e+00       9.535304e-03 
      -4.337793e+00       4.331450e+00       9.535304e-03 
      -3.880255e+00      -1.087346e-02       4.328048e+00 
      -3.853464e+00      -8.050533e-03       4.328048e+00 
      -3.855458e+00       1.087255e-02       4.347118e+00 
      -3.882249e+00       8.049621e-03       4.347118e+00 
      -4.321990e+00       4.310019e+00      -1.348496e-02 
      -4.304456e+00       4.325396e+00       0.000000e+00 
      -4.324810e+00       4.336781e+00       1.348496e-02 
      -4.342344e+00       4.321404e+00       0.000000e+00 
      -3.866447e+00      -1.338109e-02       4.324098e+00 
      -3.848912e+00       1.995654e-03       4.337583e+00 
      -3.869266e+00       1.338018e-02       4.351068e+00 
      -3.886801e+00      -1.996566e-03       4.337583e+00 
      -4.108027e+00       2.150827e+00       2.159256e+00 
      -4.081236e+00       2.153650e+00       2.159256e+00 
      -4.083229e+00       2.172573e+00       2.178327e+00 
      -4.110021e+00       2.169750e+00       2.178327e+00 
       4.309007e+00       4.315350e+00      -9.535304e-03 
       4.335799e+00       4.312527e+00      -9.535304e-03 
       4.337793e+00       4.331450e+00       9.535304e-03 
       4.311001e+00       4.334273e+00       9.535304e-03 
       3.853463e+00      -8.050530e-03       4.328048e+00 
       3.880254e+00      -1.087346e-02       4.328048e+00 
       3.882248e+00       8.049618e-03       4.347118e+00 
       3.855457e+00       1.087255e-02       4.347118e+00 
       4.321990e+00       4.310019e+00      -1.348496e-02 
       4.342344e+00       4.321404e+00       0.000000e+00 
       4.324810e+00       4.336781e+00       1.348496e-02 
       4.304456e+00       4.325396e+00       0.000000e+00 
       3.866446e+00      -1.338109e-02       4.324098e+00 
       3.886800e+00      -1.996570e-03       4.337583e+00 
       3.869265e+00       1.338018e-02       4.351068e+00 
       3.848911e+00       1.995658e-03       4.337583e+00 
       4.081235e+00       2.153650e+00       2.159256e+00 
       4.108027e+00       2.150827e+00       2.159256e+00 
       4.110020e+00       2.169750e+00       2.178327e+00 
       4.083229e+00       2.172573e+00       2.178327e+00 
      -4.309007e+00      -4.315350e+00      -9.535303e-03 
      -4.335799e+00      -4.312527e+00      -9.535303e-03 
      -4.337793e+00      -4.331450e+00       9.535303e-03 
      -4.311001e+00      -4.334273e+00       9.535303e-03 
      -3.853464e+00       8.049622e-03       4.328048e+00 
      -3.880255e+00       1.087255e-02       4.328048e+00 
      -3.882249e+00      -8.050534e-03       4.347118e+00 
      -3.855458e+00      -1.087346e-02       4.347118e+00 
      -4.321990e+00      -4.310019e+00      -1.348495e-02 
      -4.342344e+00      -4.321404e+00       0.000000e+00 
      -4.324810e+00      -4.336781e+00       1.348495e-02 
      -4.304456e+00      -4.325396e+00       0.000000e+00 
      -3.866447e+00       1.338018e-02       4.324098e+00 
      -3.886801e+00       1.995654e-03       4.337583e+00 
      -3.869266e+00      -1.338110e-02       4.351068e+00 
      -3.848912e+00      -1.996566e-03       4.337583e+00 
      -4.081236e+00      -2.153650e+00       2.159256e+00 
      -4.108027e+00      -2.150827e+00       2.159256e+00 
      -4.110021e+00      -2.169750e+00       2.178327e+00 
      -4.083229e+00      -2.172573e+00       2.178327e+00 
      -4.315350e+00       4.309007e+00      -9.535303e-03 
      -4.312527e+00       4.335799e+00      -9.535303e-03 
      -4.331450e+00       4.337793e+00       9.535303e-03 
      -4.334273e+00       4.311001e+00       9.535303e-03 
       8.049618e-03       3.853463e+00       4.328048e+00 
       1.087255e-02       3.880254e+00       4.328048e+00 
      -8.050532e-03       3.882248e+00       4.347118e+00 
      -1.087346e-02       3.855457e+00       4.347118e+00 
      -4.310019e+00       4.321990e+00      -1.348495e-02 
      -4.321404e+00       4.342344e+00       0.000000e+00 
      -4.336781e+00       4.324810e+00       1.348495e-02 
      -4.325396e+00       4.304456e+00       0.000000e+00 
       1.338018e-02       3.866446e+00       4.324098e+00 
       1.995657e-03       3.886800e+00       4.337583e+00 
      -1.338110e-02       3.869265e+00       4.351068e+00 
      -1.996571e-03       3.848911e+00       4.337583e+00 
      -2.153650e+00       4.081235e+00       2.159256e+00 
      -2.150827e+00       4.108027e+00       2.159256e+00 
      -2.169750e+00       4.110020e+00       2.178327e+00 
      -2.172573e+00       4.083229e+00       2.178327e+00 
      -4.312527e+00      -4.335799e+00      -9.535303e-03 
      -4.315350e+00      -4.309007e+00      -9.535303e-03 
      -4.334273e+00      -4.311001e+00       9.535303e-03 
      -4.331450e+00      -4.337793e+00       9.535303e-03 
       1.087255e-02      -3.880255e+00       4.328048e+00 
       8.049621e-03      -3.853464e+00       4.328048e+00 
      -1.087346e-02      -3.855458e+00       4.347118e+00 
      -8.050535e-03      -3.882249e+00       4.347118e+00 
      -4.310019e+00      -4.321990e+00      -1.348495e-02 
      -4.325396e+00      -4.304456e+00       0.000000e+00 
      -4.336781e+00      -4.324810e+00       1.348495e-02 
      -4.321404e+00      -4.342344e+00       0.000000e+00 
       1.338018e-02      -3.866447e+00       4.324098e+00 
      -1.996567e-03      -3.848912e+00       4.337583e+00 
      -1.338110e-02      -3.869266e+00       4.351068e+00 
       1.995653e-03      -3.886801e+00       4.337583e+00 
      -2.150827e+00      -4.108027e+00       2.159256e+00 
      -2.153650e+00      -4.081236e+00       2.159256e+00 
      -2.172573e+00      -4.083229e+00       2.178327e+00 
      -2.169750e+00      -4.110021e+00       2.178327e+00 
       4.312527e+00       4.335799e+00      -9.535304e-03 
       4.315350e+00       4.309007e+00      -9.535304e-03 
       4.334273e+00       4.311001e+00       9.535304e-03 
       4.331450e+00       4.337793e+00       9.535304e-03 
      -1.087346e-02       3.880254e+00       4.328048e+00 
      -8.050531e-03       3.853463e+00       4.328048e+00 
       1.087255e-02       3.855457e+00       4.347118e+00 
       8.049617e-03       3.882248e+00       4.347118e+00 
       4.310019e+00       4.321990e+00      -1.348496e-02 
       4.325396e+00       4.304456e+00       0.000000e+00 
       4.336781e+00       4.324810e+00       1.348496e-02 
       4.321404e+00       4.342344e+00       0.000000e+00 
      -1.338109e-02       3.866446e+00       4.324098e+00 
       1.995657e-03       3.848911e+00       4.337583e+00 
       1.338018e-02       3.869265e+00       4.351068e+00 
      -1.996571e-03       3.886800e+00       4.337583e+00 
       2.150827e+00       4.108027e+00       2.159256e+00 
       2.153650e+00       4.081235e+00       2.159256e+00 
       2.172573e+00       4.083229e+00       2.178327e+00 
       2.169750e+00       4.110020e+00       2.178327e+00 
       4.335799e+00      -4.312527e+00      -9.535303e-03 
       4.309007e+00      -4.315350e+00      -9.535303e-03 
       4.311001e+00      -4.334273e+00       9.535303e-03 
       4.337793e+00      -4.331450e+00       9.535303e-03 
       3.880254e+00       1.087255e-02       4.328048e+00 
       3.853463e+00       8.049618e-03       4.328048e+00 
       3.855457e+00      -1.087346e-02       4.347118e+00 
       3.882248e+00      -8.050531e-03       4.347118e+00 
       4.321990e+00      -4.310019e+00      -1.348495e-02 
       4.304456e+00      -4.325396e+00       0.000000e+00 
       4.324810e+00      -4.336781e+00       1.348495e-02 
       4.342344e+00      -4.321404e+00       0.000000e+00 
       3.866446e+00       1.338018e-02       4.324098e+00 
       3.848911e+00      -1.996570e-03       4.337583e+00 
       3.869265e+00      -1.338110e-02       4.351068e+00 
       3.886800e+00       1.995658e-03       4.337583e+00 
       4.108027e+00      -2.150827e+00       2.159256e+00 
       4.081235e+00      -2.153650e+00       2.159256e+00 
       4.083229e+00      -2.172573e+00       2.178327e+00 
       4.110020e+00      -2.169750e+00       2.178327e+00 
       4.315350e+00      -4.309007e+00      -9.535304e-03 
       4.312527e+00      -4.335799e+00      -9.535304e-03 
       4.331450e+00      -4.337793e+00       9.535304e-03 
       4.334273e+00      -4.311001e+00       9.535304e-03 
      -8.050534e-03      -3.853464e+00       4.328048e+00 
      -1.087346e-02      -3.880255e+00       4.328048e+00 
       8.049620e-03      -3.882249e+00       4.347118e+00 
       1.087255e-02      -3.855458e+00       4.347118e+00 
       4.310019e+00      -4.321990e+00      -1.348496e-02 
       4.321404e+00      -4.342344e+00       0.000000e+00 
       4.336781e+00      -4.324810e+00       1.348496e-02 
       4.325396e+00      -4.304456e+00       0.000000e+00 
      -1.338110e-02      -3.866447e+00       4.324098e+00 
      -1.996567e-03      -3.886801e+00       4.337583e+00 
       1.338018e-02      -3.869266e+00       4.351068e+00 
       1.995653e-03      -3.848912e+00       4.337583e+00 
       2.153650e+00      -4.081236e+00       2.159256e+00 
       2.150827e+00      -4.108027e+00       2.159256e+00 
       2.169750e+00      -4.110021e+00       2.178327e+00 
       2.172573e+00      -4.083229e+00       2.178327e+00 
      -4.290298e+00      -4.323581e+00      -3.459979e-03 
      -4.323581e+00      -4.290298e+00      -3.459979e-03 
      -4.356502e+00      -4.323219e+00       3.459979e-03 
      -4.323219e+00      -4.356502e+00       3.459979e-03 
      -3.835216e+00      -3.868502e+00       4.326507e+00 
      -3.868498e+00      -3.835220e+00       4.326507e+00 
      -3.901419e+00      -3.868140e+00       4.333427e+00 
[...]
POINT_DATA     13260 
VECTORS Displacements float
       0.00000000e+00       0.00000000e+00       0.00000000e+00 
       0.00000000e+00       0.00000000e+00       0.00000000e+00 
       0.00000000e+00       0.00000000e+00       0.00000000e+00 
       0.00000000e+00       0.00000000e+00       0.00000000e+00 
       4.35740473e-05      -4.56154413e-07      -1.61692229e-03 
       4.35740473e-05      -4.56154413e-07      -1.61692229e-03 
       4.35740473e-05      -4.56154413e-07      -1.61692229e-03 
       4.35740473e-05      -4.56154413e-07      -1.61692229e-03 
       0.00000000e+00       0.00000000e+00       0.00000000e+00 
       0.00000000e+00       0.00000000e+00       0.00000000e+00 
       0.00000000e+00       0.00000000e+00       0.00000000e+00 
       0.00000000e+00       0.00000000e+00       0.00000000e+00 
       4.35740473e-05      -4.56154413e-07      -1.61692229e-03 
       4.35740473e-05      -4.56154413e-07      -1.61692229e-03 
       4.35740473e-05      -4.56154413e-07      -1.61692229e-03 
       4.35740473e-05      -4.56154413e-07      -1.61692229e-03 
       2.17870237e-05      -2.28077206e-07      -8.08461143e-04 
       2.17870237e-05      -2.28077206e-07      -8.08461143e-04 
       2.17870237e-05      -2.28077206e-07      -8.08461143e-04 
       2.17870237e-05      -2.28077206e-07      -8.08461143e-04 
       0.00000000e+00       0.00000000e+00       0.00000000e+00 
       0.00000000e+00       0.00000000e+00       0.00000000e+00 
       0.00000000e+00       0.00000000e+00       0.00000000e+00 
       0.00000000e+00       0.00000000e+00       0.00000000e+00 
      -4.44886256e-05      -4.56152513e-07      -1.61701898e-03 
      -4.44886256e-05      -4.56152513e-07      -1.61701898e-03 
      -4.44886256e-05      -4.56152513e-07      -1.61701898e-03 
      -4.44886256e-05      -4.56152513e-07      -1.61701898e-03 
       0.00000000e+00       0.00000000e+00       0.00000000e+00 
       0.00000000e+00       0.00000000e+00       0.00000000e+00 
       0.00000000e+00       0.00000000e+00       0.00000000e+00 
       0.00000000e+00       0.00000000e+00       0.00000000e+00 
      -4.44886256e-05      -4.56152513e-07      -1.61701898e-03 
      -4.44886256e-05      -4.56152513e-07      -1.61701898e-03 
      -4.44886256e-05      -4.56152513e-07      -1.61701898e-03 
      -4.44886256e-05      -4.56152513e-07      -1.61701898e-03 
      -2.22443128e-05      -2.28076256e-07      -8.08509488e-04 
      -2.22443128e-05      -2.28076256e-07      -8.08509488e-04 
      -2.22443128e-05      -2.28076256e-07      -8.08509488e-04 
      -2.22443128e-05      -2.28076256e-07      -8.08509488e-04 
       0.00000000e+00       0.00000000e+00       0.00000000e+00 
       0.00000000e+00       0.00000000e+00       0.00000000e+00 
       0.00000000e+00       0.00000000e+00       0.00000000e+00 
       0.00000000e+00       0.00000000e+00       0.00000000e+00 
       4.35740473e-05      -4.56154413e-07      -1.61692229e-03 
       4.35740473e-05      -4.56154413e-07      -1.61692229e-03 
       4.35740473e-05      -4.56154413e-07      -1.61692229e-03 
       4.35740473e-05      -4.56154413e-07      -1.61692229e-03 
       0.00000000e+00       0.00000000e+00       0.00000000e+00 
       0.00000000e+00       0.00000000e+00       0.00000000e+00 
       0.00000000e+00       0.00000000e+00       0.00000000e+00 
       0.00000000e+00       0.00000000e+00       0.00000000e+00 
       4.35740473e-05      -4.56154413e-07      -1.61692229e-03 
       4.35740473e-05      -4.56154413e-07      -1.61692229e-03 
       4.35740473e-05      -4.56154413e-07      -1.61692229e-03 
       4.35740473e-05      -4.56154413e-07      -1.61692229e-03 
       2.17870237e-05      -2.28077206e-07      -8.08461143e-04 
       2.17870237e-05      -2.28077206e-07      -8.08461143e-04 
       2.17870237e-05      -2.28077206e-07      -8.08461143e-04 
       2.17870237e-05      -2.28077206e-07      -8.08461143e-04 
       0.00000000e+00       0.00000000e+00       0.00000000e+00 
       0.00000000e+00       0.00000000e+00       0.00000000e+00 
       0.00000000e+00       0.00000000e+00       0.00000000e+00 
       0.00000000e+00       0.00000000e+00       0.00000000e+00 
      -4.57068759e-07      -4.44860763e-05      -1.61699280e-03 
      -4.57068759e-07      -4.44860763e-05      -1.61699280e-03 
      -4.57068759e-07      -4.44860763e-05      -1.61699280e-03 
      -4.57068759e-07      -4.44860763e-05      -1.61699280e-03 
       0.00000000e+00       0.00000000e+00       0.00000000e+00 
       0.00000000e+00       0.00000000e+00       0.00000000e+00 
       0.00000000e+00       0.00000000e+00       0.00000000e+00 
       0.00000000e+00       0.00000000e+00       0.00000000e+00 
      -4.57068759e-07      -4.44860763e-05      -1.61699280e-03 
      -4.57068759e-07      -4.44860763e-05      -1.61699280e-03 
      -4.57068759e-07      -4.44860763e-05      -1.61699280e-03 
      -4.57068759e-07      -4.44860763e-05      -1.61699280e-03 
      -2.28534380e-07      -2.22430382e-05      -8.08496399e-04 
      -2.28534380e-07      -2.22430382e-05      -8.08496399e-04 
      -2.28534380e-07      -2.22430382e-05      -8.08496399e-04 
      -2.28534380e-07      -2.22430382e-05      -8.08496399e-04 
       0.00000000e+00       0.00000000e+00       0.00000000e+00 
       0.00000000e+00       0.00000000e+00       0.00000000e+00 
       0.00000000e+00       0.00000000e+00       0.00000000e+00 
       0.00000000e+00       0.00000000e+00       0.00000000e+00 
      -4.57070657e-07       4.35733333e-05      -1.61689632e-03 
      -4.57070657e-07       4.35733333e-05      -1.61689632e-03 
      -4.57070657e-07       4.35733333e-05      -1.61689632e-03 
      -4.57070657e-07       4.35733333e-05      -1.61689632e-03 
       0.00000000e+00       0.00000000e+00       0.00000000e+00 
       0.00000000e+00       0.00000000e+00       0.00000000e+00 
       0.00000000e+00       0.00000000e+00       0.00000000e+00 
       0.00000000e+00       0.00000000e+00       0.00000000e+00 
      -4.57070657e-07       4.35733333e-05      -1.61689632e-03 
      -4.57070657e-07       4.35733333e-05      -1.61689632e-03 
      -4.57070657e-07       4.35733333e-05      -1.61689632e-03 
      -4.57070657e-07       4.35733333e-05      -1.61689632e-03 
      -2.28535328e-07       2.17866666e-05      -8.08448160e-04 
      -2.28535328e-07       2.17866666e-05      -8.08448160e-04 
      -2.28535328e-07       2.17866666e-05      -8.08448160e-04 
      -2.28535328e-07       2.17866666e-05      -8.08448160e-04 
       0.00000000e+00       0.00000000e+00       0.00000000e+00 
       0.00000000e+00       0.00000000e+00       0.00000000e+00 
       0.00000000e+00       0.00000000e+00       0.00000000e+00 
       0.00000000e+00       0.00000000e+00       0.00000000e+00 
      -4.57068759e-07      -4.44860763e-05      -1.61699280e-03 
      -4.57068759e-07      -4.44860763e-05      -1.61699280e-03 
      -4.57068759e-07      -4.44860763e-05      -1.61699280e-03 
      -4.57068759e-07      -4.44860763e-05      -1.61699280e-03 
       0.00000000e+00       0.00000000e+00       0.00000000e+00 
       0.00000000e+00       0.00000000e+00       0.00000000e+00 
       0.00000000e+00       0.00000000e+00       0.00000000e+00 
       0.00000000e+00       0.00000000e+00       0.00000000e+00 
      -4.57068759e-07      -4.44860763e-05      -1.61699280e-03 
      -4.57068759e-07      -4.44860763e-05      -1.61699280e-03 
      -4.57068759e-07      -4.44860763e-05      -1.61699280e-03 
      -4.57068759e-07      -4.44860763e-05      -1.61699280e-03 
      -2.28534380e-07      -2.22430382e-05      -8.08496399e-04 
      -2.28534380e-07      -2.22430382e-05      -8.08496399e-04 
      -2.28534380e-07      -2.22430382e-05      -8.08496399e-04 
      -2.28534380e-07      -2.22430382e-05      -8.08496399e-04 
       0.00000000e+00       0.00000000e+00       0.00000000e+00 
       0.00000000e+00       0.00000000e+00       0.00000000e+00 
       0.00000000e+00       0.00000000e+00       0.00000000e+00 
       0.00000000e+00       0.00000000e+00       0.00000000e+00 
      -4.44886256e-05      -4.56152513e-07      -1.61701898e-03 
      -4.44886256e-05      -4.56152513e-07      -1.61701898e-03 
      -4.44886256e-05      -4.56152513e-07      -1.61701898e-03 
      -4.44886256e-05      -4.56152513e-07      -1.61701898e-03 
       0.00000000e+00       0.00000000e+00       0.00000000e+00 
       0.00000000e+00       0.00000000e+00       0.00000000e+00 
       0.00000000e+00       0.00000000e+00       0.00000000e+00 
       0.00000000e+00       0.00000000e+00       0.00000000e+00 
      -4.44886256e-05      -4.56152513e-07      -1.61701898e-03 
      -4.44886256e-05      -4.56152513e-07      -1.61701898e-03 
      -4.44886256e-05      -4.56152513e-07      -1.61701898e-03 
      -4.44886256e-05      -4.56152513e-07      -1.61701898e-03 
      -2.22443128e-05      -2.28076256e-07      -8.08509488e-04 
      -2.22443128e-05      -2.28076256e-07      -8.08509488e-04 
      -2.22443128e-05      -2.28076256e-07      -8.08509488e-04 
      -2.22443128e-05      -2.28076256e-07      -8.08509488e-04 
       0.00000000e+00       0.00000000e+00       0.00000000e+00 
       0.00000000e+00       0.00000000e+00       0.00000000e+00 
       0.00000000e+00       0.00000000e+00       0.00000000e+00 
       0.00000000e+00       0.00000000e+00       0.00000000e+00 
      -4.57070657e-07       4.35733333e-05      -1.61689632e-03 
      -4.57070657e-07       4.35733333e-05      -1.61689632e-03 
      -4.57070657e-07       4.35733333e-05      -1.61689632e-03 
      -4.57070657e-07       4.35733333e-05      -1.61689632e-03 
       0.00000000e+00       0.00000000e+00       0.00000000e+00 
       0.00000000e+00       0.00000000e+00       0.00000000e+00 
       0.00000000e+00       0.00000000e+00       0.00000000e+00 
       0.00000000e+00       0.00000000e+00       0.00000000e+00 
      -4.57070657e-07       4.35733333e-05      -1.61689632e-03 
      -4.57070657e-07       4.35733333e-05      -1.61689632e-03 
      -4.57070657e-07       4.35733333e-05      -1.61689632e-03 
      -4.57070657e-07       4.35733333e-05      -1.61689632e-03 
      -2.28535328e-07       2.17866666e-05      -8.08448160e-04 
      -2.28535328e-07       2.17866666e-05      -8.08448160e-04 
      -2.28535328e-07       2.17866666e-05      -8.08448160e-04 
      -2.28535328e-07       2.17866666e-05      -8.08448160e-04 
       0.00000000e+00       0.00000000e+00       0.00000000e+00 
       0.00000000e+00       0.00000000e+00       0.00000000e+00 
       0.00000000e+00       0.00000000e+00       0.00000000e+00 
       0.00000000e+00       0.00000000e+00       0.00000000e+00 
      -4.17217356e-04      -4.21348831e-04      -9.23264123e-03 
      -4.17217356e-04      -4.21348831e-04      -9.23264123e-03 
      -4.17217356e-04      -4.21348831e-04      -9.23264123e-03 
      -4.17217356e-04      -4.21348831e-04      -9.23264123e-03 
       0.00000000e+00       0.00000000e+00       0.00000000e+00 
       0.00000000e+00       0.00000000e+00       0.00000000e+00 
       0.00000000e+00       0.00000000e+00       0.00000000e+00 
       0.00000000e+00       0.00000000e+00       0.00000000e+00 
      -4.17217356e-04      -4.21348831e-04      -9.23264123e-03 
      -4.17217356e-04      -4.21348831e-04      -9.23264123e-03 
      -4.17217356e-04      -4.21348831e-04      -9.23264123e-03 
      -4.17217356e-04      -4.21348831e-04      -9.23264123e-03 
      -2.08608678e-04      -2.10674415e-04      -4.61632061e-03 
      -2.08608678e-04      -2.10674415e-04      -4.61632061e-03 
      -2.08608678e-04      -2.10674415e-04      -4.61632061e-03 
      -2.08608678e-04      -2.10674415e-04      -4.61632061e-03 
       0.00000000e+00       0.00000000e+00       0.00000000e+00 
       0.00000000e+00       0.00000000e+00       0.00000000e+00 
       0.00000000e+00       0.00000000e+00       0.00000000e+00 
       0.00000000e+00       0.00000000e+00       0.00000000e+00 
       4.16015897e-04      -4.21384316e-04      -9.23376722e-03 
       4.16015897e-04      -4.21384316e-04      -9.23376722e-03 
       4.16015897e-04      -4.21384316e-04      -9.23376722e-03 
       4.16015897e-04      -4.21384316e-04      -9.23376722e-03 
       0.00000000e+00       0.00000000e+00       0.00000000e+00 
       0.00000000e+00       0.00000000e+00       0.00000000e+00 
       0.00000000e+00       0.00000000e+00       0.00000000e+00 
       0.00000000e+00       0.00000000e+00       0.00000000e+00 
       4.16015897e-04      -4.21384316e-04      -9.23376722e-03 
       4.16015897e-04      -4.21384316e-04      -9.23376722e-03 
       4.16015897e-04      -4.21384316e-04      -9.23376722e-03 
       4.16015897e-04      -4.21384316e-04      -9.23376722e-03 
       2.08007948e-04      -2.10692158e-04      -4.61688361e-03 
       2.08007948e-04      -2.10692158e-04      -4.61688361e-03 
       2.08007948e-04      -2.10692158e-04      -4.61688361e-03 
       2.08007948e-04      -2.10692158e-04      -4.61688361e-03 
       0.00000000e+00       0.00000000e+00       0.00000000e+00 
       0.00000000e+00       0.00000000e+00       0.00000000e+00 
       0.00000000e+00       0.00000000e+00       0.00000000e+00 
       0.00000000e+00       0.00000000e+00       0.00000000e+00 
       4.16049072e-04       4.20185273e-04      -9.23489118e-03 
       4.16049072e-04       4.20185273e-04      -9.23489118e-03 
       4.16049072e-04       4.20185273e-04      -9.23489118e-03 
       4.16049072e-04       4.20185273e-04      -9.23489118e-03 
       0.00000000e+00       0.00000000e+00       0.00000000e+00 
       0.00000000e+00       0.00000000e+00       0.00000000e+00 
       0.00000000e+00       0.00000000e+00       0.00000000e+00 
       0.00000000e+00       0.00000000e+00       0.00000000e+00 
       4.16049072e-04       4.20185273e-04      -9.23489118e-03 
       4.16049072e-04       4.20185273e-04      -9.23489118e-03 
       4.16049072e-04       4.20185273e-04      -9.23489118e-03 
       4.16049072e-04       4.20185273e-04      -9.23489118e-03 
       2.08024536e-04       2.10092636e-04      -4.61744559e-03 
       2.08024536e-04       2.10092636e-04      -4.61744559e-03 
       2.08024536e-04       2.10092636e-04      -4.61744559e-03 
       2.08024536e-04       2.10092636e-04      -4.61744559e-03 
       0.00000000e+00       0.00000000e+00       0.00000000e+00 
       0.00000000e+00       0.00000000e+00       0.00000000e+00 
       0.00000000e+00       0.00000000e+00       0.00000000e+00 
       0.00000000e+00       0.00000000e+00       0.00000000e+00 
      -4.17250523e-04       4.20149780e-04      -9.23376521e-03 
      -4.17250523e-04       4.20149780e-04      -9.23376521e-03 
      -4.17250523e-04       4.20149780e-04      -9.23376521e-03 
      -4.17250523e-04       4.20149780e-04      -9.23376521e-03 
       0.00000000e+00       0.00000000e+00       0.00000000e+00 
       0.00000000e+00       0.00000000e+00       0.00000000e+00 
       0.00000000e+00       0.00000000e+00       0.00000000e+00 
       0.00000000e+00       0.00000000e+00       0.00000000e+00 
      -4.17250523e-04       4.20149780e-04      -9.23376521e-03 
      -4.17250523e-04       4.20149780e-04      -9.23376521e-03 
      -4.17250523e-04       4.20149780e-04      -9.23376521e-03 
      -4.17250523e-04       4.20149780e-04      -9.23376521e-03 
      -2.08625261e-04       2.10074890e-04      -4.61688260e-03 
      -2.08625261e-04       2.10074890e-04      -4.61688260e-03 
      -2.08625261e-04       2.10074890e-04      -4.61688260e-03 
      -2.08625261e-04       2.10074890e-04      -4.61688260e-03 
       4.35740473e-05      -4.56154413e-07      -1.61692229e-03 
       4.35740473e-05      -4.56154413e-07      -1.61692229e-03 
       4.35740473e-05      -4.56154413e-07      -1.61692229e-03 
       4.35740473e-05      -4.56154413e-07      -1.61692229e-03 
      -4.17250523e-04       4.20149780e-04      -9.23376521e-03 
      -4.17250523e-04       4.20149780e-04      -9.23376521e-03 
      -4.17250523e-04       4.20149780e-04      -9.23376521e-03 
      -4.17250523e-04       4.20149780e-04      -9.23376521e-03 
       4.35740473e-05      -4.56154413e-07      -1.61692229e-03 
       4.35740473e-05      -4.56154413e-07      -1.61692229e-03 
       4.35740473e-05      -4.56154413e-07      -1.61692229e-03 
       4.35740473e-05      -4.56154413e-07      -1.61692229e-03 
      -4.17250523e-04       4.20149780e-04      -9.23376521e-03 
      -4.17250523e-04       4.20149780e-04      -9.23376521e-03 
      -4.17250523e-04       4.20149780e-04      -9.23376521e-03 
      -4.17250523e-04       4.20149780e-04      -9.23376521e-03 
      -1.86838238e-04       2.09846813e-04      -5.42534375e-03 
      -1.86838238e-04       2.09846813e-04      -5.42534375e-03 
      -1.86838238e-04       2.09846813e-04      -5.42534375e-03 
      -1.86838238e-04       2.09846813e-04      -5.42534375e-03 
       4.35740473e-05      -4.56154413e-07      -1.61692229e-03 
       4.35740473e-05      -4.56154413e-07      -1.61692229e-03 
       4.35740473e-05      -4.56154413e-07      -1.61692229e-03 
       4.35740473e-05      -4.56154413e-07      -1.61692229e-03 
      -4.17217356e-04      -4.21348831e-04      -9.23264123e-03 
      -4.17217356e-04      -4.21348831e-04      -9.23264123e-03 
      -4.17217356e-04      -4.21348831e-04      -9.23264123e-03 
      -4.17217356e-04      -4.21348831e-04      -9.23264123e-03 
       4.35740473e-05      -4.56154413e-07      -1.61692229e-03 
       4.35740473e-05      -4.56154413e-07      -1.61692229e-03 
       4.35740473e-05      -4.56154413e-07      -1.61692229e-03 
       4.35740473e-05      -4.56154413e-07      -1.61692229e-03 
      -4.17217356e-04      -4.21348831e-04      -9.23264123e-03 
      -4.17217356e-04      -4.21348831e-04      -9.23264123e-03 
      -4.17217356e-04      -4.21348831e-04      -9.23264123e-03 
      -4.17217356e-04      -4.21348831e-04      -9.23264123e-03 
      -1.86821654e-04      -2.10902493e-04      -5.42478176e-03 
      -1.86821654e-04      -2.10902493e-04      -5.42478176e-03 
      -1.86821654e-04      -2.10902493e-04      -5.42478176e-03 
      -1.86821654e-04      -2.10902493e-04      -5.42478176e-03 
      -4.44886256e-05      -4.56152513e-07      -1.61701898e-03 
      -4.44886256e-05      -4.56152513e-07      -1.61701898e-03 
      -4.44886256e-05      -4.56152513e-07      -1.61701898e-03 
      -4.44886256e-05      -4.56152513e-07      -1.61701898e-03 
       4.16049072e-04       4.20185273e-04      -9.23489118e-03 
       4.16049072e-04       4.20185273e-04      -9.23489118e-03 
       4.16049072e-04       4.20185273e-04      -9.23489118e-03 
       4.16049072e-04       4.20185273e-04      -9.23489118e-03 
      -4.44886256e-05      -4.56152513e-07      -1.61701898e-03 
      -4.44886256e-05      -4.56152513e-07      -1.61701898e-03 
      -4.44886256e-05      -4.56152513e-07      -1.61701898e-03 
      -4.44886256e-05      -4.56152513e-07      -1.61701898e-03 
       4.16049072e-04       4.20185273e-04      -9.23489118e-03 
       4.16049072e-04       4.20185273e-04      -9.23489118e-03 
       4.16049072e-04       4.20185273e-04      -9.23489118e-03 
       4.16049072e-04       4.20185273e-04      -9.23489118e-03 
       1.85780223e-04       2.09864560e-04      -5.42595508e-03 
       1.85780223e-04       2.09864560e-04      -5.42595508e-03 
       1.85780223e-04       2.09864560e-04      -5.42595508e-03 
       1.85780223e-04       2.09864560e-04      -5.42595508e-03 
      -4.44886256e-05      -4.56152513e-07      -1.61701898e-03 
      -4.44886256e-05      -4.56152513e-07      -1.61701898e-03 
      -4.44886256e-05      -4.56152513e-07      -1.61701898e-03 
      -4.44886256e-05      -4.56152513e-07      -1.61701898e-03 
      -4.57070657e-07       4.35733333e-05      -1.61689632e-03 
      -4.57070657e-07       4.35733333e-05      -1.61689632e-03 