# vtk DataFile Version 2.0
./output/Static_Tower/Static_Tower_0003.vtk
ASCII
DATASET UNSTRUCTURED_GRID

POINTS 13260 float
      -4.427466e+00       4.404288e+00      -9.630269e-03 
      -4.400660e+00       4.406970e+00      -9.630269e-03 
      -4.402534e+00       4.425712e+00       9.630269e-03 
      -4.429340e+00       4.423030e+00       9.630269e-03 
      -3.985885e+00      -1.071158e-02       4.329495e+00 
      -3.959079e+00      -8.030490e-03       4.329495e+00 
      -3.960953e+00       1.071156e-02       4.348756e+00 
      -3.987759e+00       8.030469e-03       4.348756e+00 
      -4.413674e+00       4.401747e+00      -1.361926e-02 
      -4.396045e+00       4.416896e+00       0.000000e+00 
      -4.416326e+00       4.428253e+00       1.361926e-02 
      -4.433955e+00       4.413104e+00       0.000000e+00 
      -3.972093e+00      -1.325264e-02       4.325506e+00 
      -3.954464e+00       1.895804e-03       4.339125e+00 
      -3.974744e+00       1.325262e-02       4.352745e+00 
      -3.992374e+00      -1.895824e-03       4.339125e+00 
      -4.206675e+00       2.196788e+00       2.159932e+00 
      -4.179869e+00       2.199470e+00       2.159932e+00 
      -4.181744e+00       2.218212e+00       2.179193e+00 
      -4.208550e+00       2.215530e+00       2.179193e+00 
       4.400661e+00       4.406968e+00      -9.630149e-03 
       4.427467e+00       4.404290e+00      -9.630149e-03 
       4.429339e+00       4.423032e+00       9.630149e-03 
       4.402533e+00       4.425710e+00       9.630149e-03 
       3.959639e+00      -8.032412e-03       4.329552e+00 
       3.986446e+00      -1.071013e-02       4.329552e+00 
       3.988318e+00       8.032392e-03       4.348812e+00 
       3.961512e+00       1.071011e-02       4.348812e+00 
       4.413676e+00       4.401747e+00      -1.361909e-02 
       4.433955e+00       4.413107e+00       0.000000e+00 
       4.416324e+00       4.428253e+00       1.361909e-02 
       4.396045e+00       4.416893e+00       0.000000e+00 
       3.972655e+00      -1.325298e-02       4.325563e+00 
       3.992933e+00      -1.893445e-03       4.339182e+00 
       3.975302e+00       1.325296e-02       4.352801e+00 
       3.955024e+00       1.893425e-03       4.339182e+00 
       4.180150e+00       2.199468e+00       2.159961e+00 
       4.206956e+00       2.196790e+00       2.159961e+00 
       4.208829e+00       2.215532e+00       2.179221e+00 
       4.182022e+00       2.218210e+00       2.179221e+00 
      -4.400660e+00      -4.406970e+00      -9.630269e-03 
      -4.427466e+00      -4.404288e+00      -9.630269e-03 
      -4.429340e+00      -4.423030e+00       9.630269e-03 
      -4.402534e+00      -4.425712e+00       9.630269e-03 
      -3.959079e+00       8.030469e-03       4.329495e+00 
      -3.985885e+00       1.071156e-02       4.329495e+00 
      -3.987759e+00      -8.030490e-03       4.348756e+00 
      -3.960953e+00      -1.071158e-02       4.348756e+00 
      -4.413674e+00      -4.401747e+00      -1.361926e-02 
      -4.433955e+00      -4.413104e+00       0.000000e+00 
      -4.416326e+00      -4.428253e+00       1.361926e-02 
      -4.396045e+00      -4.416896e+00       0.000000e+00 
      -3.972093e+00       1.325262e-02       4.325506e+00 
      -3.992374e+00       1.895804e-03       4.339125e+00 
      -3.974744e+00      -1.325264e-02       4.352745e+00 
      -3.954464e+00      -1.895824e-03       4.339125e+00 
      -4.179869e+00      -2.199470e+00       2.159932e+00 
      -4.206675e+00      -2.196788e+00       2.159932e+00 
      -4.208550e+00      -2.215530e+00       2.179193e+00 
      -4.181744e+00      -2.218212e+00       2.179193e+00 
      -4.406969e+00       4.400660e+00      -9.630497e-03 
      -4.404290e+00       4.427466e+00      -9.630497e-03 
      -4.423031e+00       4.429340e+00       9.630497e-03 
      -4.425710e+00       4.402534e+00       9.630497e-03 
       8.303996e-03       3.959359e+00       4.329523e+00 
       1.098324e-02       3.986165e+00       4.329523e+00 
      -7.758475e-03       3.988038e+00       4.348784e+00 
      -1.043772e-02       3.961232e+00       4.348784e+00 
      -4.401748e+00       4.413675e+00      -1.361958e-02 
      -4.413105e+00       4.433955e+00       0.000000e+00 
      -4.428252e+00       4.416325e+00       1.361958e-02 
      -4.416895e+00       4.396045e+00       0.000000e+00 
       1.352515e-02       3.972374e+00       4.325534e+00 
       2.167269e-03       3.992654e+00       4.339154e+00 
      -1.297963e-02       3.975023e+00       4.352773e+00 
      -1.621748e-03       3.954744e+00       4.339154e+00 
      -2.199332e+00       4.180010e+00       2.159946e+00 
      -2.196653e+00       4.206816e+00       2.159946e+00 
      -2.215395e+00       4.208689e+00       2.179207e+00 
      -2.218074e+00       4.181883e+00       2.179207e+00 
      -4.404290e+00      -4.427466e+00      -9.630497e-03 
      -4.406969e+00      -4.400660e+00      -9.630497e-03 
      -4.425710e+00      -4.402534e+00       9.630497e-03 
      -4.423031e+00      -4.429340e+00       9.630497e-03 
       1.098324e-02      -3.986165e+00       4.329523e+00 
       8.303996e-03      -3.959359e+00       4.329523e+00 
      -1.043772e-02      -3.961232e+00       4.348784e+00 
      -7.758475e-03      -3.988038e+00       4.348784e+00 
      -4.401748e+00      -4.413675e+00      -1.361958e-02 
      -4.416895e+00      -4.396045e+00       0.000000e+00 
      -4.428252e+00      -4.416325e+00       1.361958e-02 
      -4.413105e+00      -4.433955e+00       0.000000e+00 
       1.352515e-02      -3.972374e+00       4.325534e+00 
      -1.621748e-03      -3.954744e+00       4.339154e+00 
      -1.297963e-02      -3.975023e+00       4.352773e+00 
       2.167269e-03      -3.992654e+00       4.339154e+00 
      -2.196653e+00      -4.206816e+00       2.159946e+00 
      -2.199332e+00      -4.180010e+00       2.159946e+00 
      -2.218074e+00      -4.181883e+00       2.179207e+00 
      -2.215395e+00      -4.208689e+00       2.179207e+00 
       4.404289e+00       4.427466e+00      -9.629921e-03 
       4.406968e+00       4.400660e+00      -9.629921e-03 
       4.425711e+00       4.402534e+00       9.629921e-03 
       4.423032e+00       4.429340e+00       9.629921e-03 
      -1.043845e-02       3.986165e+00       4.329524e+00 
      -7.758886e-03       3.959359e+00       4.329524e+00 
       1.098397e-02       3.961233e+00       4.348784e+00 
       8.304406e-03       3.988039e+00       4.348784e+00 
       4.401747e+00       4.413675e+00      -1.361877e-02 
       4.416895e+00       4.396045e+00       0.000000e+00 
       4.428253e+00       4.416325e+00       1.361877e-02 
       4.413105e+00       4.433955e+00       0.000000e+00 
      -1.298044e-02       3.972374e+00       4.325535e+00 
       2.167501e-03       3.954744e+00       4.339154e+00 
       1.352596e-02       3.975024e+00       4.352773e+00 
      -1.621980e-03       3.992654e+00       4.339154e+00 
       2.196925e+00       4.206816e+00       2.159947e+00 
       2.199605e+00       4.180010e+00       2.159947e+00 
       2.218348e+00       4.181883e+00       2.179207e+00 
       2.215668e+00       4.208689e+00       2.179207e+00 
       4.427467e+00      -4.404290e+00      -9.630149e-03 
       4.400661e+00      -4.406968e+00      -9.630149e-03 
       4.402533e+00      -4.425710e+00       9.630149e-03 
       4.429339e+00      -4.423032e+00       9.630149e-03 
       3.986446e+00       1.071011e-02       4.329552e+00 
       3.959639e+00       8.032392e-03       4.329552e+00 
       3.961512e+00      -1.071013e-02       4.348812e+00 
       3.988318e+00      -8.032413e-03       4.348812e+00 
       4.413676e+00      -4.401747e+00      -1.361909e-02 
       4.396045e+00      -4.416893e+00       0.000000e+00 
       4.416324e+00      -4.428253e+00       1.361909e-02 
       4.433955e+00      -4.413107e+00       0.000000e+00 
       3.972655e+00       1.325296e-02       4.325563e+00 
       3.955024e+00      -1.893445e-03       4.339182e+00 
       3.975302e+00      -1.325298e-02       4.352801e+00 
       3.992933e+00       1.893425e-03       4.339182e+00 
       4.206956e+00      -2.196790e+00       2.159961e+00 
       4.180150e+00      -2.199468e+00       2.159961e+00 
       4.182022e+00      -2.218210e+00       2.179221e+00 
       4.208829e+00      -2.215532e+00       2.179221e+00 
       4.406968e+00      -4.400660e+00      -9.629921e-03 
       4.404289e+00      -4.427466e+00      -9.629921e-03 
       4.423032e+00      -4.429340e+00       9.629921e-03 
       4.425711e+00      -4.402534e+00       9.629921e-03 
      -7.758886e-03      -3.959359e+00       4.329524e+00 
      -1.043845e-02      -3.986165e+00       4.329524e+00 
       8.304406e-03      -3.988039e+00       4.348784e+00 
       1.098397e-02      -3.961233e+00       4.348784e+00 
       4.401747e+00      -4.413675e+00      -1.361877e-02 
       4.413105e+00      -4.433955e+00       0.000000e+00 
       4.428253e+00      -4.416325e+00       1.361877e-02 
       4.416895e+00      -4.396045e+00       0.000000e+00 
      -1.298044e-02      -3.972374e+00       4.325535e+00 
      -1.621980e-03      -3.992654e+00       4.339154e+00 
       1.352596e-02      -3.975024e+00       4.352773e+00 
       2.167501e-03      -3.954744e+00       4.339154e+00 
       2.199605e+00      -4.180010e+00       2.159947e+00 
       2.196925e+00      -4.206816e+00       2.159947e+00 
       2.215668e+00      -4.208689e+00       2.179207e+00 
       2.218348e+00      -4.181883e+00       2.179207e+00 
      -4.381887e+00      -4.415182e+00      -3.351415e-03 
      -4.415157e+00      -4.381887e+00      -3.351415e-03 
      -4.448113e+00      -4.414818e+00       3.351415e-03 
      -4.414843e+00      -4.448113e+00       3.351415e-03 
      -3.940243e+00      -3.973882e+00       4.336164e+00 
      -3.973512e+00      -3.940587e+00       4.336164e+00 
      -4.006468e+00      -3.973517e+00       4.342867e+00 
[...]
POINT_DATA     13260 
VECTORS Displacements float
       0.00000000e+00       0.00000000e+00       0.00000000e+00 
       0.00000000e+00       0.00000000e+00       0.00000000e+00 
       0.00000000e+00       0.00000000e+00       0.00000000e+00 
       0.00000000e+00       0.00000000e+00       0.00000000e+00 
       2.81018597e-04      -1.01982928e-08      -7.46160540e-05 
       2.81018597e-04      -1.01982928e-08      -7.46160540e-05 
       2.81018597e-04      -1.01982928e-08      -7.46160540e-05 
       2.81018597e-04      -1.01982928e-08      -7.46160540e-05 
       0.00000000e+00       0.00000000e+00       0.00000000e+00 
       0.00000000e+00       0.00000000e+00       0.00000000e+00 
       0.00000000e+00       0.00000000e+00       0.00000000e+00 
       0.00000000e+00       0.00000000e+00       0.00000000e+00 
       2.81018597e-04      -1.01982928e-08      -7.46160540e-05 
       2.81018597e-04      -1.01982928e-08      -7.46160540e-05 
       2.81018597e-04      -1.01982928e-08      -7.46160540e-05 
       2.81018597e-04      -1.01982928e-08      -7.46160540e-05 
       1.40509299e-04      -5.09914640e-09      -3.73080270e-05 
       1.40509299e-04      -5.09914640e-09      -3.73080270e-05 
       1.40509299e-04      -5.09914640e-09      -3.73080270e-05 
       1.40509299e-04      -5.09914640e-09      -3.73080270e-05 
       0.00000000e+00       0.00000000e+00       0.00000000e+00 
       0.00000000e+00       0.00000000e+00       0.00000000e+00 
       0.00000000e+00       0.00000000e+00       0.00000000e+00 
       0.00000000e+00       0.00000000e+00       0.00000000e+00 
       2.78591920e-04      -1.03769001e-08      -1.77141904e-05 
       2.78591920e-04      -1.03769001e-08      -1.77141904e-05 
       2.78591920e-04      -1.03769001e-08      -1.77141904e-05 
       2.78591920e-04      -1.03769001e-08      -1.77141904e-05 
       0.00000000e+00       0.00000000e+00       0.00000000e+00 
       0.00000000e+00       0.00000000e+00       0.00000000e+00 
       0.00000000e+00       0.00000000e+00       0.00000000e+00 
       0.00000000e+00       0.00000000e+00       0.00000000e+00 
       2.78591920e-04      -1.03769001e-08      -1.77141904e-05 
       2.78591920e-04      -1.03769001e-08      -1.77141904e-05 
       2.78591920e-04      -1.03769001e-08      -1.77141904e-05 
       2.78591920e-04      -1.03769001e-08      -1.77141904e-05 
       1.39295960e-04      -5.18845007e-09      -8.85709522e-06 
       1.39295960e-04      -5.18845007e-09      -8.85709522e-06 
       1.39295960e-04      -5.18845007e-09      -8.85709522e-06 
       1.39295960e-04      -5.18845007e-09      -8.85709522e-06 
       0.00000000e+00       0.00000000e+00       0.00000000e+00 
       0.00000000e+00       0.00000000e+00       0.00000000e+00 
       0.00000000e+00       0.00000000e+00       0.00000000e+00 
       0.00000000e+00       0.00000000e+00       0.00000000e+00 
       2.81018597e-04      -1.01982928e-08      -7.46160540e-05 
       2.81018597e-04      -1.01982928e-08      -7.46160540e-05 
       2.81018597e-04      -1.01982928e-08      -7.46160540e-05 
       2.81018597e-04      -1.01982928e-08      -7.46160540e-05 
       0.00000000e+00       0.00000000e+00       0.00000000e+00 
       0.00000000e+00       0.00000000e+00       0.00000000e+00 
       0.00000000e+00       0.00000000e+00       0.00000000e+00 
       0.00000000e+00       0.00000000e+00       0.00000000e+00 
       2.81018597e-04      -1.01982928e-08      -7.46160540e-05 
       2.81018597e-04      -1.01982928e-08      -7.46160540e-05 
       2.81018597e-04      -1.01982928e-08      -7.46160540e-05 
       2.81018597e-04      -1.01982928e-08      -7.46160540e-05 
       1.40509299e-04      -5.09914640e-09      -3.73080270e-05 
       1.40509299e-04      -5.09914640e-09      -3.73080270e-05 
       1.40509299e-04      -5.09914640e-09      -3.73080270e-05 
       1.40509299e-04      -5.09914640e-09      -3.73080270e-05 
       0.00000000e+00       0.00000000e+00       0.00000000e+00 
       0.00000000e+00       0.00000000e+00       0.00000000e+00 
       0.00000000e+00       0.00000000e+00       0.00000000e+00 
       0.00000000e+00       0.00000000e+00       0.00000000e+00 
       2.72760296e-04      -1.22523505e-06      -4.61804522e-05 
       2.72760296e-04      -1.22523505e-06      -4.61804522e-05 
       2.72760296e-04      -1.22523505e-06      -4.61804522e-05 
       2.72760296e-04      -1.22523505e-06      -4.61804522e-05 
       0.00000000e+00       0.00000000e+00       0.00000000e+00 
       0.00000000e+00       0.00000000e+00       0.00000000e+00 
       0.00000000e+00       0.00000000e+00       0.00000000e+00 
       0.00000000e+00       0.00000000e+00       0.00000000e+00 
       2.72760296e-04      -1.22523505e-06      -4.61804522e-05 
       2.72760296e-04      -1.22523505e-06      -4.61804522e-05 
       2.72760296e-04      -1.22523505e-06      -4.61804522e-05 
       2.72760296e-04      -1.22523505e-06      -4.61804522e-05 
       1.36380148e-04      -6.12617524e-07      -2.30902261e-05 
       1.36380148e-04      -6.12617524e-07      -2.30902261e-05 
       1.36380148e-04      -6.12617524e-07      -2.30902261e-05 
       1.36380148e-04      -6.12617524e-07      -2.30902261e-05 
       0.00000000e+00       0.00000000e+00       0.00000000e+00 
       0.00000000e+00       0.00000000e+00       0.00000000e+00 
       0.00000000e+00       0.00000000e+00       0.00000000e+00 
       0.00000000e+00       0.00000000e+00       0.00000000e+00 
       2.72760146e-04       1.20465957e-06      -4.61783593e-05 
       2.72760146e-04       1.20465957e-06      -4.61783593e-05 
       2.72760146e-04       1.20465957e-06      -4.61783593e-05 
       2.72760146e-04       1.20465957e-06      -4.61783593e-05 
       0.00000000e+00       0.00000000e+00       0.00000000e+00 
       0.00000000e+00       0.00000000e+00       0.00000000e+00 
       0.00000000e+00       0.00000000e+00       0.00000000e+00 
       0.00000000e+00       0.00000000e+00       0.00000000e+00 
       2.72760146e-04       1.20465957e-06      -4.61783593e-05 
       2.72760146e-04       1.20465957e-06      -4.61783593e-05 
       2.72760146e-04       1.20465957e-06      -4.61783593e-05 
       2.72760146e-04       1.20465957e-06      -4.61783593e-05 
       1.36380073e-04       6.02329783e-07      -2.30891796e-05 
       1.36380073e-04       6.02329783e-07      -2.30891796e-05 
       1.36380073e-04       6.02329783e-07      -2.30891796e-05 
       1.36380073e-04       6.02329783e-07      -2.30891796e-05 
       0.00000000e+00       0.00000000e+00       0.00000000e+00 
       0.00000000e+00       0.00000000e+00       0.00000000e+00 
       0.00000000e+00       0.00000000e+00       0.00000000e+00 
       0.00000000e+00       0.00000000e+00       0.00000000e+00 
       2.72760296e-04      -1.22523505e-06      -4.61804522e-05 
       2.72760296e-04      -1.22523505e-06      -4.61804522e-05 
       2.72760296e-04      -1.22523505e-06      -4.61804522e-05 
       2.72760296e-04      -1.22523505e-06      -4.61804522e-05 
       0.00000000e+00       0.00000000e+00       0.00000000e+00 
       0.00000000e+00       0.00000000e+00       0.00000000e+00 
       0.00000000e+00       0.00000000e+00       0.00000000e+00 
       0.00000000e+00       0.00000000e+00       0.00000000e+00 
       2.72760296e-04      -1.22523505e-06      -4.61804522e-05 
       2.72760296e-04      -1.22523505e-06      -4.61804522e-05 
       2.72760296e-04      -1.22523505e-06      -4.61804522e-05 
       2.72760296e-04      -1.22523505e-06      -4.61804522e-05 
       1.36380148e-04      -6.12617524e-07      -2.30902261e-05 
       1.36380148e-04      -6.12617524e-07      -2.30902261e-05 
       1.36380148e-04      -6.12617524e-07      -2.30902261e-05 
       1.36380148e-04      -6.12617524e-07      -2.30902261e-05 
       0.00000000e+00       0.00000000e+00       0.00000000e+00 
       0.00000000e+00       0.00000000e+00       0.00000000e+00 
       0.00000000e+00       0.00000000e+00       0.00000000e+00 
       0.00000000e+00       0.00000000e+00       0.00000000e+00 
       2.78591920e-04      -1.03769001e-08      -1.77141904e-05 
       2.78591920e-04      -1.03769001e-08      -1.77141904e-05 
       2.78591920e-04      -1.03769001e-08      -1.77141904e-05 
       2.78591920e-04      -1.03769001e-08      -1.77141904e-05 
       0.00000000e+00       0.00000000e+00       0.00000000e+00 
       0.00000000e+00       0.00000000e+00       0.00000000e+00 
       0.00000000e+00       0.00000000e+00       0.00000000e+00 
       0.00000000e+00       0.00000000e+00       0.00000000e+00 
       2.78591920e-04      -1.03769001e-08      -1.77141904e-05 
       2.78591920e-04      -1.03769001e-08      -1.77141904e-05 
       2.78591920e-04      -1.03769001e-08      -1.77141904e-05 
       2.78591920e-04      -1.03769001e-08      -1.77141904e-05 
       1.39295960e-04      -5.18845007e-09      -8.85709522e-06 
       1.39295960e-04      -5.18845007e-09      -8.85709522e-06 
       1.39295960e-04      -5.18845007e-09      -8.85709522e-06 
       1.39295960e-04      -5.18845007e-09      -8.85709522e-06 
       0.00000000e+00       0.00000000e+00       0.00000000e+00 
       0.00000000e+00       0.00000000e+00       0.00000000e+00 
       0.00000000e+00       0.00000000e+00       0.00000000e+00 
       0.00000000e+00       0.00000000e+00       0.00000000e+00 
       2.72760146e-04       1.20465957e-06      -4.61783593e-05 
       2.72760146e-04       1.20465957e-06      -4.61783593e-05 
       2.72760146e-04       1.20465957e-06      -4.61783593e-05 
       2.72760146e-04       1.20465957e-06      -4.61783593e-05 
       0.00000000e+00       0.00000000e+00       0.00000000e+00 
       0.00000000e+00       0.00000000e+00       0.00000000e+00 
       0.00000000e+00       0.00000000e+00       0.00000000e+00 
       0.00000000e+00       0.00000000e+00       0.00000000e+00 
       2.72760146e-04       1.20465957e-06      -4.61783593e-05 
       2.72760146e-04       1.20465957e-06      -4.61783593e-05 
       2.72760146e-04       1.20465957e-06      -4.61783593e-05 
       2.72760146e-04       1.20465957e-06      -4.61783593e-05 
       1.36380073e-04       6.02329783e-07      -2.30891796e-05 
       1.36380073e-04       6.02329783e-07      -2.30891796e-05 
       1.36380073e-04       6.02329783e-07      -2.30891796e-05 
       1.36380073e-04       6.02329783e-07      -2.30891796e-05 
       0.00000000e+00       0.00000000e+00       0.00000000e+00 
       0.00000000e+00       0.00000000e+00       0.00000000e+00 
       0.00000000e+00       0.00000000e+00       0.00000000e+00 
       0.00000000e+00       0.00000000e+00       0.00000000e+00 
       3.44345284e-04       5.26073432e-07       3.15547328e-04 
       3.44345284e-04       5.26073432e-07       3.15547328e-04 
       3.44345284e-04       5.26073432e-07       3.15547328e-04 
       3.44345284e-04       5.26073432e-07       3.15547328e-04 
       0.00000000e+00       0.00000000e+00       0.00000000e+00 
       0.00000000e+00       0.00000000e+00       0.00000000e+00 
       0.00000000e+00       0.00000000e+00       0.00000000e+00 
       0.00000000e+00       0.00000000e+00       0.00000000e+00 
       3.44345284e-04       5.26073432e-07       3.15547328e-04 
       3.44345284e-04       5.26073432e-07       3.15547328e-04 
       3.44345284e-04       5.26073432e-07       3.15547328e-04 
       3.44345284e-04       5.26073432e-07       3.15547328e-04 
       1.72172642e-04       2.63036716e-07       1.57773664e-04 
       1.72172642e-04       2.63036716e-07       1.57773664e-04 
       1.72172642e-04       2.63036716e-07       1.57773664e-04 
       1.72172642e-04       2.63036716e-07       1.57773664e-04 
       0.00000000e+00       0.00000000e+00       0.00000000e+00 
       0.00000000e+00       0.00000000e+00       0.00000000e+00 
       0.00000000e+00       0.00000000e+00       0.00000000e+00 
       0.00000000e+00       0.00000000e+00       0.00000000e+00 
       3.67954159e-04      -2.40351323e-05      -6.66337386e-04 
       3.67954159e-04      -2.40351323e-05      -6.66337386e-04 
       3.67954159e-04      -2.40351323e-05      -6.66337386e-04 
       3.67954159e-04      -2.40351323e-05      -6.66337386e-04 
       0.00000000e+00       0.00000000e+00       0.00000000e+00 
       0.00000000e+00       0.00000000e+00       0.00000000e+00 
       0.00000000e+00       0.00000000e+00       0.00000000e+00 
       0.00000000e+00       0.00000000e+00       0.00000000e+00 
       3.67954159e-04      -2.40351323e-05      -6.66337386e-04 
       3.67954159e-04      -2.40351323e-05      -6.66337386e-04 
       3.67954159e-04      -2.40351323e-05      -6.66337386e-04 
       3.67954159e-04      -2.40351323e-05      -6.66337386e-04 
       1.83977080e-04      -1.20175661e-05      -3.33168693e-04 
       1.83977080e-04      -1.20175661e-05      -3.33168693e-04 
       1.83977080e-04      -1.20175661e-05      -3.33168693e-04 
       1.83977080e-04      -1.20175661e-05      -3.33168693e-04 
       0.00000000e+00       0.00000000e+00       0.00000000e+00 
       0.00000000e+00       0.00000000e+00       0.00000000e+00 
       0.00000000e+00       0.00000000e+00       0.00000000e+00 
       0.00000000e+00       0.00000000e+00       0.00000000e+00 
       3.67955568e-04       2.40076390e-05      -6.66364221e-04 
       3.67955568e-04       2.40076390e-05      -6.66364221e-04 
       3.67955568e-04       2.40076390e-05      -6.66364221e-04 
       3.67955568e-04       2.40076390e-05      -6.66364221e-04 
       0.00000000e+00       0.00000000e+00       0.00000000e+00 
       0.00000000e+00       0.00000000e+00       0.00000000e+00 
       0.00000000e+00       0.00000000e+00       0.00000000e+00 
       0.00000000e+00       0.00000000e+00       0.00000000e+00 
       3.67955568e-04       2.40076390e-05      -6.66364221e-04 
       3.67955568e-04       2.40076390e-05      -6.66364221e-04 
       3.67955568e-04       2.40076390e-05      -6.66364221e-04 
       3.67955568e-04       2.40076390e-05      -6.66364221e-04 
       1.83977784e-04       1.20038195e-05      -3.33182111e-04 
       1.83977784e-04       1.20038195e-05      -3.33182111e-04 
       1.83977784e-04       1.20038195e-05      -3.33182111e-04 
       1.83977784e-04       1.20038195e-05      -3.33182111e-04 
       0.00000000e+00       0.00000000e+00       0.00000000e+00 
       0.00000000e+00       0.00000000e+00       0.00000000e+00 
       0.00000000e+00       0.00000000e+00       0.00000000e+00 
       0.00000000e+00       0.00000000e+00       0.00000000e+00 
       3.44344247e-04      -5.53066602e-07       3.15520531e-04 
       3.44344247e-04      -5.53066602e-07       3.15520531e-04 
       3.44344247e-04      -5.53066602e-07       3.15520531e-04 
       3.44344247e-04      -5.53066602e-07       3.15520531e-04 
       0.00000000e+00       0.00000000e+00       0.00000000e+00 
       0.00000000e+00       0.00000000e+00       0.00000000e+00 
       0.00000000e+00       0.00000000e+00       0.00000000e+00 
       0.00000000e+00       0.00000000e+00       0.00000000e+00 
       3.44344247e-04      -5.53066602e-07       3.15520531e-04 
       3.44344247e-04      -5.53066602e-07       3.15520531e-04 
       3.44344247e-04      -5.53066602e-07       3.15520531e-04 
       3.44344247e-04      -5.53066602e-07       3.15520531e-04 
       1.72172124e-04      -2.76533301e-07       1.57760266e-04 
       1.72172124e-04      -2.76533301e-07       1.57760266e-04 
       1.72172124e-04      -2.76533301e-07       1.57760266e-04 
       1.72172124e-04      -2.76533301e-07       1.57760266e-04 
       2.81018597e-04      -1.01982928e-08      -7.46160540e-05 
       2.81018597e-04      -1.01982928e-08      -7.46160540e-05 
       2.81018597e-04      -1.01982928e-08      -7.46160540e-05 
       2.81018597e-04      -1.01982928e-08      -7.46160540e-05 
       3.44344247e-04      -5.53066602e-07       3.15520531e-04 
       3.44344247e-04      -5.53066602e-07       3.15520531e-04 
       3.44344247e-04      -5.53066602e-07       3.15520531e-04 
       3.44344247e-04      -5.53066602e-07       3.15520531e-04 
       2.81018597e-04      -1.01982928e-08      -7.46160540e-05 
       2.81018597e-04      -1.01982928e-08      -7.46160540e-05 
       2.81018597e-04      -1.01982928e-08      -7.46160540e-05 
       2.81018597e-04      -1.01982928e-08      -7.46160540e-05 
       3.44344247e-04      -5.53066602e-07       3.15520531e-04 
       3.44344247e-04      -5.53066602e-07       3.15520531e-04 
       3.44344247e-04      -5.53066602e-07       3.15520531e-04 
       3.44344247e-04      -5.53066602e-07       3.15520531e-04 
       3.12681422e-04      -2.81632447e-07       1.20452239e-04 
       3.12681422e-04      -2.81632447e-07       1.20452239e-04 
       3.12681422e-04      -2.81632447e-07       1.20452239e-04 
       3.12681422e-04      -2.81632447e-07       1.20452239e-04 
       2.81018597e-04      -1.01982928e-08      -7.46160540e-05 
       2.81018597e-04      -1.01982928e-08      -7.46160540e-05 
       2.81018597e-04      -1.01982928e-08      -7.46160540e-05 
       2.81018597e-04      -1.01982928e-08      -7.46160540e-05 
       3.44345284e-04       5.26073432e-07       3.15547328e-04 
       3.44345284e-04       5.26073432e-07       3.15547328e-04 
       3.44345284e-04       5.26073432e-07       3.15547328e-04 
       3.44345284e-04       5.26073432e-07       3.15547328e-04 
       2.81018597e-04      -1.01982928e-08      -7.46160540e-05 
       2.81018597e-04      -1.01982928e-08      -7.46160540e-05 
       2.81018597e-04      -1.01982928e-08      -7.46160540e-05 
       2.81018597e-04      -1.01982928e-08      -7.46160540e-05 
       3.44345284e-04       5.26073432e-07       3.15547328e-04 
       3.44345284e-04       5.26073432e-07       3.15547328e-04 
       3.44345284e-04       5.26073432e-07       3.15547328e-04 
       3.44345284e-04       5.26073432e-07       3.15547328e-04 
       3.12681941e-04       2.57937570e-07       1.20465637e-04 
       3.12681941e-04       2.57937570e-07       1.20465637e-04 
       3.12681941e-04       2.57937570e-07       1.20465637e-04 
       3.12681941e-04       2.57937570e-07       1.20465637e-04 
       2.78591920e-04      -1.03769001e-08      -1.77141904e-05 
       2.78591920e-04      -1.03769001e-08      -1.77141904e-05 
       2.78591920e-04      -1.03769001e-08      -1.77141904e-05 
       2.78591920e-04      -1.03769001e-08      -1.77141904e-05 
       3.67955568e-04       2.40076390e-05      -6.66364221e-04 
       3.67955568e-04       2.40076390e-05      -6.66364221e-04 
       3.67955568e-04       2.40076390e-05      -6.66364221e-04 
       3.67955568e-04       2.40076390e-05      -6.66364221e-04 
       2.78591920e-04      -1.03769001e-08      -1.77141904e-05 
       2.78591920e-04      -1.03769001e-08      -1.77141904e-05 
       2.78591920e-04      -1.03769001e-08      -1.77141904e-05 
       2.78591920e-04      -1.03769001e-08      -1.77141904e-05 
       3.67955568e-04       2.40076390e-05      -6.66364221e-04 
       3.67955568e-04       2.40076390e-05      -6.66364221e-04 
       3.67955568e-04       2.40076390e-05      -6.66364221e-04 
       3.67955568e-04       2.40076390e-05      -6.66364221e-04 
       3.23273744e-04       1.19986310e-05      -3.42039206e-04 
       3.23273744e-04       1.19986310e-05      -3.42039206e-04 
       3.23273744e-04       1.19986310e-05      -3.42039206e-04 
       3.23273744e-04       1.19986310e-05      -3.42039206e-04 
       2.78591920e-04      -1.03769001e-08      -1.77141904e-05 
       2.78591920e-04      -1.03769001e-08      -1.77141904e-05 
       2.78591920e-04      -1.03769001e-08      -1.77141904e-05 
       2.78591920e-04      -1.03769001e-08      -1.77141904e-05 
       2.72760146e-04       1.20465957e-06      -4.61783593e-05 
       2.72760146e-04       1.20465957e-06      -4.61783593e-05 