# vtk DataFile Version 2.0
./output/Static_Tower/Static_Tower_0008.vtk
ASCII
DATASET UNSTRUCTURED_GRID

POINTS 13260 float
      -4.335799e+00       4.312526e+00      -9.534251e-03 
      -4.309007e+00       4.315349e+00      -9.534251e-03 
      -4.311001e+00       4.334274e+00       9.534251e-03 
      -4.337793e+00       4.331451e+00       9.534251e-03 
      -3.880281e+00      -1.086168e-02       4.328993e+00 
      -3.853489e+00      -8.038907e-03       4.328993e+00 
      -3.855483e+00       1.088628e-02       4.348062e+00 
      -3.882275e+00       8.063505e-03       4.348062e+00 
      -4.321990e+00       4.310018e+00      -1.348347e-02 
      -4.304456e+00       4.325396e+00       0.000000e+00 
      -4.324810e+00       4.336782e+00       1.348347e-02 
      -4.342344e+00       4.321404e+00       0.000000e+00 
      -3.866472e+00      -1.336983e-02       4.325044e+00 
      -3.848937e+00       2.008304e-03       4.338528e+00 
      -3.869292e+00       1.339443e-02       4.352011e+00 
      -3.886826e+00      -1.983706e-03       4.338528e+00 
      -4.108040e+00       2.150832e+00       2.159730e+00 
      -4.081248e+00       2.153655e+00       2.159730e+00 
      -4.083242e+00       2.172580e+00       2.178798e+00 
      -4.110034e+00       2.169757e+00       2.178798e+00 
       4.309007e+00       4.315349e+00      -9.534251e-03 
       4.335799e+00       4.312526e+00      -9.534251e-03 
       4.337793e+00       4.331451e+00       9.534251e-03 
       4.311001e+00       4.334274e+00       9.534251e-03 
       3.853489e+00      -8.038905e-03       4.328993e+00 
       3.880280e+00      -1.086169e-02       4.328993e+00 
       3.882274e+00       8.063503e-03       4.348062e+00 
       3.855483e+00       1.088628e-02       4.348062e+00 
       4.321990e+00       4.310018e+00      -1.348347e-02 
       4.342344e+00       4.321404e+00       0.000000e+00 
       4.324810e+00       4.336782e+00       1.348347e-02 
       4.304456e+00       4.325396e+00       0.000000e+00 
       3.866472e+00      -1.336983e-02       4.325044e+00 
       3.886826e+00      -1.983708e-03       4.338528e+00 
       3.869291e+00       1.339443e-02       4.352011e+00 
       3.848937e+00       2.008306e-03       4.338528e+00 
       4.081248e+00       2.153655e+00       2.159730e+00 
       4.108039e+00       2.150832e+00       2.159730e+00 
       4.110033e+00       2.169757e+00       2.178798e+00 
       4.083242e+00       2.172580e+00       2.178798e+00 
      -4.309007e+00      -4.315349e+00      -9.534278e-03 
      -4.335799e+00      -4.312526e+00      -9.534278e-03 
      -4.337793e+00      -4.331451e+00       9.534278e-03 
      -4.311001e+00      -4.334274e+00       9.534278e-03 
      -3.853489e+00       8.063486e-03       4.328993e+00 
      -3.880281e+00       1.088625e-02       4.328993e+00 
      -3.882275e+00      -8.038888e-03       4.348062e+00 
      -3.855483e+00      -1.086165e-02       4.348062e+00 
      -4.321990e+00      -4.310018e+00      -1.348351e-02 
      -4.342344e+00      -4.321404e+00       0.000000e+00 
      -4.324810e+00      -4.336782e+00       1.348351e-02 
      -4.304456e+00      -4.325396e+00       0.000000e+00 
      -3.866472e+00       1.339439e-02       4.325044e+00 
      -3.886826e+00       2.008293e-03       4.338528e+00 
      -3.869292e+00      -1.336979e-02       4.352011e+00 
      -3.848937e+00      -1.983695e-03       4.338528e+00 
      -4.081248e+00      -2.153643e+00       2.159730e+00 
      -4.108040e+00      -2.150820e+00       2.159730e+00 
      -4.110034e+00      -2.169745e+00       2.178798e+00 
      -4.083242e+00      -2.172568e+00       2.178798e+00 
      -4.315349e+00       4.309007e+00      -9.534262e-03 
      -4.312526e+00       4.335799e+00      -9.534262e-03 
      -4.331451e+00       4.337793e+00       9.534262e-03 
      -4.334274e+00       4.311001e+00       9.534262e-03 
       8.051076e-03       3.853502e+00       4.328995e+00 
       1.087377e-02       3.880293e+00       4.328995e+00 
      -8.051405e-03       3.882287e+00       4.348063e+00 
      -1.087410e-02       3.855496e+00       4.348063e+00 
      -4.310018e+00       4.321990e+00      -1.348348e-02 
      -4.321404e+00       4.342344e+00       0.000000e+00 
      -4.336782e+00       4.324810e+00       1.348348e-02 
      -4.325396e+00       4.304456e+00       0.000000e+00 
       1.338195e-02       3.866484e+00       4.325045e+00 
       1.995781e-03       3.886839e+00       4.338529e+00 
      -1.338228e-02       3.869304e+00       4.352012e+00 
      -1.996110e-03       3.848950e+00       4.338529e+00 
      -2.153649e+00       4.081255e+00       2.159730e+00 
      -2.150826e+00       4.108046e+00       2.159730e+00 
      -2.169751e+00       4.110040e+00       2.178799e+00 
      -2.172574e+00       4.083248e+00       2.178799e+00 
      -4.312526e+00      -4.335799e+00      -9.534267e-03 
      -4.315349e+00      -4.309007e+00      -9.534267e-03 
      -4.334274e+00      -4.311001e+00       9.534267e-03 
      -4.331451e+00      -4.337793e+00       9.534267e-03 
       1.087384e-02      -3.880268e+00       4.328992e+00 
       8.050987e-03      -3.853476e+00       4.328992e+00 
      -1.087416e-02      -3.855470e+00       4.348061e+00 
      -8.051316e-03      -3.882262e+00       4.348061e+00 
      -4.310018e+00      -4.321990e+00      -1.348349e-02 
      -4.325396e+00      -4.304456e+00       0.000000e+00 
      -4.336782e+00      -4.324810e+00       1.348349e-02 
      -4.321404e+00      -4.342344e+00       0.000000e+00 
       1.338194e-02      -3.866459e+00       4.325043e+00 
      -1.996220e-03      -3.848925e+00       4.338526e+00 
      -1.338227e-02      -3.869279e+00       4.352010e+00 
       1.995891e-03      -3.886813e+00       4.338526e+00 
      -2.150826e+00      -4.108033e+00       2.159729e+00 
      -2.153649e+00      -4.081242e+00       2.159729e+00 
      -2.172574e+00      -4.083236e+00       2.178797e+00 
      -2.169751e+00      -4.110027e+00       2.178797e+00 
       4.312526e+00       4.335799e+00      -9.534262e-03 
       4.315349e+00       4.309007e+00      -9.534262e-03 
       4.334274e+00       4.311001e+00       9.534262e-03 
       4.331451e+00       4.337793e+00       9.534262e-03 
      -1.087410e-02       3.880293e+00       4.328995e+00 
      -8.051405e-03       3.853502e+00       4.328995e+00 
       1.087377e-02       3.855496e+00       4.348063e+00 
       8.051076e-03       3.882287e+00       4.348063e+00 
       4.310018e+00       4.321990e+00      -1.348348e-02 
       4.325396e+00       4.304456e+00       0.000000e+00 
       4.336782e+00       4.324810e+00       1.348348e-02 
       4.321404e+00       4.342344e+00       0.000000e+00 
      -1.338228e-02       3.866484e+00       4.325045e+00 
       1.995781e-03       3.848950e+00       4.338529e+00 
       1.338195e-02       3.869304e+00       4.352012e+00 
      -1.996110e-03       3.886839e+00       4.338529e+00 
       2.150826e+00       4.108046e+00       2.159730e+00 
       2.153649e+00       4.081255e+00       2.159730e+00 
       2.172574e+00       4.083248e+00       2.178799e+00 
       2.169751e+00       4.110040e+00       2.178799e+00 
       4.335799e+00      -4.312526e+00      -9.534278e-03 
       4.309007e+00      -4.315349e+00      -9.534278e-03 
       4.311001e+00      -4.334274e+00       9.534278e-03 
       4.337793e+00      -4.331451e+00       9.534278e-03 
       3.880280e+00       1.088625e-02       4.328993e+00 
       3.853489e+00       8.063485e-03       4.328993e+00 
       3.855483e+00      -1.086165e-02       4.348062e+00 
       3.882274e+00      -8.038887e-03       4.348062e+00 
       4.321990e+00      -4.310018e+00      -1.348351e-02 
       4.304456e+00      -4.325396e+00       0.000000e+00 
       4.324810e+00      -4.336782e+00       1.348351e-02 
       4.342344e+00      -4.321404e+00       0.000000e+00 
       3.866472e+00       1.339439e-02       4.325044e+00 
       3.848937e+00      -1.983696e-03       4.338528e+00 
       3.869291e+00      -1.336979e-02       4.352011e+00 
       3.886826e+00       2.008295e-03       4.338528e+00 
       4.108039e+00      -2.150820e+00       2.159730e+00 
       4.081248e+00      -2.153643e+00       2.159730e+00 
       4.083242e+00      -2.172568e+00       2.178798e+00 
       4.110033e+00      -2.169745e+00       2.178798e+00 
       4.315349e+00      -4.309007e+00      -9.534268e-03 
       4.312526e+00      -4.335799e+00      -9.534268e-03 
       4.331451e+00      -4.337793e+00       9.534268e-03 
       4.334274e+00      -4.311001e+00       9.534268e-03 
      -8.051316e-03      -3.853476e+00       4.328992e+00 
      -1.087416e-02      -3.880268e+00       4.328992e+00 
       8.050987e-03      -3.882262e+00       4.348061e+00 
       1.087384e-02      -3.855470e+00       4.348061e+00 
       4.310018e+00      -4.321990e+00      -1.348349e-02 
       4.321404e+00      -4.342344e+00       0.000000e+00 
       4.336782e+00      -4.324810e+00       1.348349e-02 
       4.325396e+00      -4.304456e+00       0.000000e+00 
      -1.338227e-02      -3.866459e+00       4.325043e+00 
      -1.996220e-03      -3.886813e+00       4.338526e+00 
       1.338194e-02      -3.869279e+00       4.352010e+00 
       1.995891e-03      -3.848925e+00       4.338526e+00 
       2.153649e+00      -4.081242e+00       2.159729e+00 
       2.150826e+00      -4.108033e+00       2.159729e+00 
       2.169751e+00      -4.110027e+00       2.178797e+00 
       2.172574e+00      -4.083236e+00       2.178797e+00 
      -4.290298e+00      -4.323580e+00      -3.457436e-03 
      -4.323581e+00      -4.290298e+00      -3.457436e-03 
      -4.356502e+00      -4.323220e+00       3.457436e-03 
      -4.323219e+00      -4.356502e+00       3.457436e-03 
      -3.834993e+00      -3.868259e+00       4.331980e+00 
      -3.868276e+00      -3.834977e+00       4.331980e+00 
      -3.901196e+00      -3.867899e+00       4.338895e+00 
[...]
POINT_DATA     13260 
VECTORS Displacements float
       0.00000000e+00       0.00000000e+00       0.00000000e+00 
       0.00000000e+00       0.00000000e+00       0.00000000e+00 
       0.00000000e+00       0.00000000e+00       0.00000000e+00 
       0.00000000e+00       0.00000000e+00       0.00000000e+00 
       1.81513814e-05       1.22989953e-05      -6.72369039e-04 
       1.81513814e-05       1.22989953e-05      -6.72369039e-04 
       1.81513814e-05       1.22989953e-05      -6.72369039e-04 
       1.81513814e-05       1.22989953e-05      -6.72369039e-04 
       0.00000000e+00       0.00000000e+00       0.00000000e+00 
       0.00000000e+00       0.00000000e+00       0.00000000e+00 
       0.00000000e+00       0.00000000e+00       0.00000000e+00 
       0.00000000e+00       0.00000000e+00       0.00000000e+00 
       1.81513814e-05       1.22989953e-05      -6.72369039e-04 
       1.81513814e-05       1.22989953e-05      -6.72369039e-04 
       1.81513814e-05       1.22989953e-05      -6.72369039e-04 
       1.81513814e-05       1.22989953e-05      -6.72369039e-04 
       9.07569071e-06       6.14949764e-06      -3.36184520e-04 
       9.07569071e-06       6.14949764e-06      -3.36184520e-04 
       9.07569071e-06       6.14949764e-06      -3.36184520e-04 
       9.07569071e-06       6.14949764e-06      -3.36184520e-04 
       0.00000000e+00       0.00000000e+00       0.00000000e+00 
       0.00000000e+00       0.00000000e+00       0.00000000e+00 
       0.00000000e+00       0.00000000e+00       0.00000000e+00 
       0.00000000e+00       0.00000000e+00       0.00000000e+00 
      -1.84806055e-05       1.22991460e-05      -6.72403718e-04 
      -1.84806055e-05       1.22991460e-05      -6.72403718e-04 
      -1.84806055e-05       1.22991460e-05      -6.72403718e-04 
      -1.84806055e-05       1.22991460e-05      -6.72403718e-04 
       0.00000000e+00       0.00000000e+00       0.00000000e+00 
       0.00000000e+00       0.00000000e+00       0.00000000e+00 
       0.00000000e+00       0.00000000e+00       0.00000000e+00 
       0.00000000e+00       0.00000000e+00       0.00000000e+00 
      -1.84806055e-05       1.22991460e-05      -6.72403718e-04 
      -1.84806055e-05       1.22991460e-05      -6.72403718e-04 
      -1.84806055e-05       1.22991460e-05      -6.72403718e-04 
      -1.84806055e-05       1.22991460e-05      -6.72403718e-04 
      -9.24030276e-06       6.14957299e-06      -3.36201859e-04 
      -9.24030276e-06       6.14957299e-06      -3.36201859e-04 
      -9.24030276e-06       6.14957299e-06      -3.36201859e-04 
      -9.24030276e-06       6.14957299e-06      -3.36201859e-04 
       0.00000000e+00       0.00000000e+00       0.00000000e+00 
       0.00000000e+00       0.00000000e+00       0.00000000e+00 
       0.00000000e+00       0.00000000e+00       0.00000000e+00 
       0.00000000e+00       0.00000000e+00       0.00000000e+00 
       1.81513814e-05       1.22989953e-05      -6.72369039e-04 
       1.81513814e-05       1.22989953e-05      -6.72369039e-04 
       1.81513814e-05       1.22989953e-05      -6.72369039e-04 
       1.81513814e-05       1.22989953e-05      -6.72369039e-04 
       0.00000000e+00       0.00000000e+00       0.00000000e+00 
       0.00000000e+00       0.00000000e+00       0.00000000e+00 
       0.00000000e+00       0.00000000e+00       0.00000000e+00 
       0.00000000e+00       0.00000000e+00       0.00000000e+00 
       1.81513814e-05       1.22989953e-05      -6.72369039e-04 
       1.81513814e-05       1.22989953e-05      -6.72369039e-04 
       1.81513814e-05       1.22989953e-05      -6.72369039e-04 
       1.81513814e-05       1.22989953e-05      -6.72369039e-04 
       9.07569071e-06       6.14949764e-06      -3.36184520e-04 
       9.07569071e-06       6.14949764e-06      -3.36184520e-04 
       9.07569071e-06       6.14949764e-06      -3.36184520e-04 
       9.07569071e-06       6.14949764e-06      -3.36184520e-04 
       0.00000000e+00       0.00000000e+00       0.00000000e+00 
       0.00000000e+00       0.00000000e+00       0.00000000e+00 
       0.00000000e+00       0.00000000e+00       0.00000000e+00 
       0.00000000e+00       0.00000000e+00       0.00000000e+00 
      -1.64660601e-07      -5.64957151e-06      -6.71061794e-04 
      -1.64660601e-07      -5.64957151e-06      -6.71061794e-04 
      -1.64660601e-07      -5.64957151e-06      -6.71061794e-04 
      -1.64660601e-07      -5.64957151e-06      -6.71061794e-04 
       0.00000000e+00       0.00000000e+00       0.00000000e+00 
       0.00000000e+00       0.00000000e+00       0.00000000e+00 
       0.00000000e+00       0.00000000e+00       0.00000000e+00 
       0.00000000e+00       0.00000000e+00       0.00000000e+00 
      -1.64660601e-07      -5.64957151e-06      -6.71061794e-04 
      -1.64660601e-07      -5.64957151e-06      -6.71061794e-04 
      -1.64660601e-07      -5.64957151e-06      -6.71061794e-04 
      -1.64660601e-07      -5.64957151e-06      -6.71061794e-04 
      -8.23303005e-08      -2.82478575e-06      -3.35530897e-04 
      -8.23303005e-08      -2.82478575e-06      -3.35530897e-04 
      -8.23303005e-08      -2.82478575e-06      -3.35530897e-04 
      -8.23303005e-08      -2.82478575e-06      -3.35530897e-04 
       0.00000000e+00       0.00000000e+00       0.00000000e+00 
       0.00000000e+00       0.00000000e+00       0.00000000e+00 
       0.00000000e+00       0.00000000e+00       0.00000000e+00 
       0.00000000e+00       0.00000000e+00       0.00000000e+00 
      -1.64495778e-07       3.09823331e-05      -6.73709692e-04 
      -1.64495778e-07       3.09823331e-05      -6.73709692e-04 
      -1.64495778e-07       3.09823331e-05      -6.73709692e-04 
      -1.64495778e-07       3.09823331e-05      -6.73709692e-04 
       0.00000000e+00       0.00000000e+00       0.00000000e+00 
       0.00000000e+00       0.00000000e+00       0.00000000e+00 
       0.00000000e+00       0.00000000e+00       0.00000000e+00 
       0.00000000e+00       0.00000000e+00       0.00000000e+00 
      -1.64495778e-07       3.09823331e-05      -6.73709692e-04 
      -1.64495778e-07       3.09823331e-05      -6.73709692e-04 
      -1.64495778e-07       3.09823331e-05      -6.73709692e-04 
      -1.64495778e-07       3.09823331e-05      -6.73709692e-04 
      -8.22478892e-08       1.54911666e-05      -3.36854846e-04 
      -8.22478892e-08       1.54911666e-05      -3.36854846e-04 
      -8.22478892e-08       1.54911666e-05      -3.36854846e-04 
      -8.22478892e-08       1.54911666e-05      -3.36854846e-04 
       0.00000000e+00       0.00000000e+00       0.00000000e+00 
       0.00000000e+00       0.00000000e+00       0.00000000e+00 
       0.00000000e+00       0.00000000e+00       0.00000000e+00 
       0.00000000e+00       0.00000000e+00       0.00000000e+00 
      -1.64660601e-07      -5.64957151e-06      -6.71061794e-04 
      -1.64660601e-07      -5.64957151e-06      -6.71061794e-04 
      -1.64660601e-07      -5.64957151e-06      -6.71061794e-04 
      -1.64660601e-07      -5.64957151e-06      -6.71061794e-04 
       0.00000000e+00       0.00000000e+00       0.00000000e+00 
       0.00000000e+00       0.00000000e+00       0.00000000e+00 
       0.00000000e+00       0.00000000e+00       0.00000000e+00 
       0.00000000e+00       0.00000000e+00       0.00000000e+00 
      -1.64660601e-07      -5.64957151e-06      -6.71061794e-04 
      -1.64660601e-07      -5.64957151e-06      -6.71061794e-04 
      -1.64660601e-07      -5.64957151e-06      -6.71061794e-04 
      -1.64660601e-07      -5.64957151e-06      -6.71061794e-04 
      -8.23303005e-08      -2.82478575e-06      -3.35530897e-04 
      -8.23303005e-08      -2.82478575e-06      -3.35530897e-04 
      -8.23303005e-08      -2.82478575e-06      -3.35530897e-04 
      -8.23303005e-08      -2.82478575e-06      -3.35530897e-04 
       0.00000000e+00       0.00000000e+00       0.00000000e+00 
       0.00000000e+00       0.00000000e+00       0.00000000e+00 
       0.00000000e+00       0.00000000e+00       0.00000000e+00 
       0.00000000e+00       0.00000000e+00       0.00000000e+00 
      -1.84806055e-05       1.22991460e-05      -6.72403718e-04 
      -1.84806055e-05       1.22991460e-05      -6.72403718e-04 
      -1.84806055e-05       1.22991460e-05      -6.72403718e-04 
      -1.84806055e-05       1.22991460e-05      -6.72403718e-04 
       0.00000000e+00       0.00000000e+00       0.00000000e+00 
       0.00000000e+00       0.00000000e+00       0.00000000e+00 
       0.00000000e+00       0.00000000e+00       0.00000000e+00 
       0.00000000e+00       0.00000000e+00       0.00000000e+00 
      -1.84806055e-05       1.22991460e-05      -6.72403718e-04 
      -1.84806055e-05       1.22991460e-05      -6.72403718e-04 
      -1.84806055e-05       1.22991460e-05      -6.72403718e-04 
      -1.84806055e-05       1.22991460e-05      -6.72403718e-04 
      -9.24030276e-06       6.14957299e-06      -3.36201859e-04 
      -9.24030276e-06       6.14957299e-06      -3.36201859e-04 
      -9.24030276e-06       6.14957299e-06      -3.36201859e-04 
      -9.24030276e-06       6.14957299e-06      -3.36201859e-04 
       0.00000000e+00       0.00000000e+00       0.00000000e+00 
       0.00000000e+00       0.00000000e+00       0.00000000e+00 
       0.00000000e+00       0.00000000e+00       0.00000000e+00 
       0.00000000e+00       0.00000000e+00       0.00000000e+00 
      -1.64495778e-07       3.09823331e-05      -6.73709692e-04 
      -1.64495778e-07       3.09823331e-05      -6.73709692e-04 
      -1.64495778e-07       3.09823331e-05      -6.73709692e-04 
      -1.64495778e-07       3.09823331e-05      -6.73709692e-04 
       0.00000000e+00       0.00000000e+00       0.00000000e+00 
       0.00000000e+00       0.00000000e+00       0.00000000e+00 
       0.00000000e+00       0.00000000e+00       0.00000000e+00 
       0.00000000e+00       0.00000000e+00       0.00000000e+00 
      -1.64495778e-07       3.09823331e-05      -6.73709692e-04 
      -1.64495778e-07       3.09823331e-05      -6.73709692e-04 
      -1.64495778e-07       3.09823331e-05      -6.73709692e-04 
      -1.64495778e-07       3.09823331e-05      -6.73709692e-04 
      -8.22478892e-08       1.54911666e-05      -3.36854846e-04 
      -8.22478892e-08       1.54911666e-05      -3.36854846e-04 
      -8.22478892e-08       1.54911666e-05      -3.36854846e-04 
      -8.22478892e-08       1.54911666e-05      -3.36854846e-04 
       0.00000000e+00       0.00000000e+00       0.00000000e+00 
       0.00000000e+00       0.00000000e+00       0.00000000e+00 
       0.00000000e+00       0.00000000e+00       0.00000000e+00 
       0.00000000e+00       0.00000000e+00       0.00000000e+00 
      -1.94425160e-04      -1.79085323e-04      -3.76289906e-03 
      -1.94425160e-04      -1.79085323e-04      -3.76289906e-03 
      -1.94425160e-04      -1.79085323e-04      -3.76289906e-03 
      -1.94425160e-04      -1.79085323e-04      -3.76289906e-03 
       0.00000000e+00       0.00000000e+00       0.00000000e+00 
       0.00000000e+00       0.00000000e+00       0.00000000e+00 
       0.00000000e+00       0.00000000e+00       0.00000000e+00 
       0.00000000e+00       0.00000000e+00       0.00000000e+00 
      -1.94425160e-04      -1.79085323e-04      -3.76289906e-03 
      -1.94425160e-04      -1.79085323e-04      -3.76289906e-03 
      -1.94425160e-04      -1.79085323e-04      -3.76289906e-03 
      -1.94425160e-04      -1.79085323e-04      -3.76289906e-03 
      -9.72125801e-05      -8.95426613e-05      -1.88144953e-03 
      -9.72125801e-05      -8.95426613e-05      -1.88144953e-03 
      -9.72125801e-05      -8.95426613e-05      -1.88144953e-03 
      -9.72125801e-05      -8.95426613e-05      -1.88144953e-03 
       0.00000000e+00       0.00000000e+00       0.00000000e+00 
       0.00000000e+00       0.00000000e+00       0.00000000e+00 
       0.00000000e+00       0.00000000e+00       0.00000000e+00 
       0.00000000e+00       0.00000000e+00       0.00000000e+00 
       1.93993221e-04      -1.79102717e-04      -3.76330990e-03 
       1.93993221e-04      -1.79102717e-04      -3.76330990e-03 
       1.93993221e-04      -1.79102717e-04      -3.76330990e-03 
       1.93993221e-04      -1.79102717e-04      -3.76330990e-03 
       0.00000000e+00       0.00000000e+00       0.00000000e+00 
       0.00000000e+00       0.00000000e+00       0.00000000e+00 
       0.00000000e+00       0.00000000e+00       0.00000000e+00 
       0.00000000e+00       0.00000000e+00       0.00000000e+00 
       1.93993221e-04      -1.79102717e-04      -3.76330990e-03 
       1.93993221e-04      -1.79102717e-04      -3.76330990e-03 
       1.93993221e-04      -1.79102717e-04      -3.76330990e-03 
       1.93993221e-04      -1.79102717e-04      -3.76330990e-03 
       9.69966103e-05      -8.95513585e-05      -1.88165495e-03 
       9.69966103e-05      -8.95513585e-05      -1.88165495e-03 
       9.69966103e-05      -8.95513585e-05      -1.88165495e-03 
       9.69966103e-05      -8.95513585e-05      -1.88165495e-03 
       0.00000000e+00       0.00000000e+00       0.00000000e+00 
       0.00000000e+00       0.00000000e+00       0.00000000e+00 
       0.00000000e+00       0.00000000e+00       0.00000000e+00 
       0.00000000e+00       0.00000000e+00       0.00000000e+00 
       1.95012883e-04       2.10811687e-04      -3.82020139e-03 
       1.95012883e-04       2.10811687e-04      -3.82020139e-03 
       1.95012883e-04       2.10811687e-04      -3.82020139e-03 
       1.95012883e-04       2.10811687e-04      -3.82020139e-03 
       0.00000000e+00       0.00000000e+00       0.00000000e+00 
       0.00000000e+00       0.00000000e+00       0.00000000e+00 
       0.00000000e+00       0.00000000e+00       0.00000000e+00 
       0.00000000e+00       0.00000000e+00       0.00000000e+00 
       1.95012883e-04       2.10811687e-04      -3.82020139e-03 
       1.95012883e-04       2.10811687e-04      -3.82020139e-03 
       1.95012883e-04       2.10811687e-04      -3.82020139e-03 
       1.95012883e-04       2.10811687e-04      -3.82020139e-03 
       9.75064414e-05       1.05405843e-04      -1.91010070e-03 
       9.75064414e-05       1.05405843e-04      -1.91010070e-03 
       9.75064414e-05       1.05405843e-04      -1.91010070e-03 
       9.75064414e-05       1.05405843e-04      -1.91010070e-03 
       0.00000000e+00       0.00000000e+00       0.00000000e+00 
       0.00000000e+00       0.00000000e+00       0.00000000e+00 
       0.00000000e+00       0.00000000e+00       0.00000000e+00 
       0.00000000e+00       0.00000000e+00       0.00000000e+00 
      -1.95445271e-04       2.10793912e-04      -3.81979054e-03 
      -1.95445271e-04       2.10793912e-04      -3.81979054e-03 
      -1.95445271e-04       2.10793912e-04      -3.81979054e-03 
      -1.95445271e-04       2.10793912e-04      -3.81979054e-03 
       0.00000000e+00       0.00000000e+00       0.00000000e+00 
       0.00000000e+00       0.00000000e+00       0.00000000e+00 
       0.00000000e+00       0.00000000e+00       0.00000000e+00 
       0.00000000e+00       0.00000000e+00       0.00000000e+00 
      -1.95445271e-04       2.10793912e-04      -3.81979054e-03 
      -1.95445271e-04       2.10793912e-04      -3.81979054e-03 
      -1.95445271e-04       2.10793912e-04      -3.81979054e-03 
      -1.95445271e-04       2.10793912e-04      -3.81979054e-03 
      -9.77226356e-05       1.05396956e-04      -1.90989527e-03 
      -9.77226356e-05       1.05396956e-04      -1.90989527e-03 
      -9.77226356e-05       1.05396956e-04      -1.90989527e-03 
      -9.77226356e-05       1.05396956e-04      -1.90989527e-03 
       1.81513814e-05       1.22989953e-05      -6.72369039e-04 
       1.81513814e-05       1.22989953e-05      -6.72369039e-04 
       1.81513814e-05       1.22989953e-05      -6.72369039e-04 
       1.81513814e-05       1.22989953e-05      -6.72369039e-04 
      -1.95445271e-04       2.10793912e-04      -3.81979054e-03 
      -1.95445271e-04       2.10793912e-04      -3.81979054e-03 
      -1.95445271e-04       2.10793912e-04      -3.81979054e-03 
      -1.95445271e-04       2.10793912e-04      -3.81979054e-03 
       1.81513814e-05       1.22989953e-05      -6.72369039e-04 
       1.81513814e-05       1.22989953e-05      -6.72369039e-04 
       1.81513814e-05       1.22989953e-05      -6.72369039e-04 
       1.81513814e-05       1.22989953e-05      -6.72369039e-04 
      -1.95445271e-04       2.10793912e-04      -3.81979054e-03 
      -1.95445271e-04       2.10793912e-04      -3.81979054e-03 
      -1.95445271e-04       2.10793912e-04      -3.81979054e-03 
      -1.95445271e-04       2.10793912e-04      -3.81979054e-03 
      -8.86469449e-05       1.11546454e-04      -2.24607979e-03 
      -8.86469449e-05       1.11546454e-04      -2.24607979e-03 
      -8.86469449e-05       1.11546454e-04      -2.24607979e-03 
      -8.86469449e-05       1.11546454e-04      -2.24607979e-03 
       1.81513814e-05       1.22989953e-05      -6.72369039e-04 
       1.81513814e-05       1.22989953e-05      -6.72369039e-04 
       1.81513814e-05       1.22989953e-05      -6.72369039e-04 
       1.81513814e-05       1.22989953e-05      -6.72369039e-04 
      -1.94425160e-04      -1.79085323e-04      -3.76289906e-03 
      -1.94425160e-04      -1.79085323e-04      -3.76289906e-03 
      -1.94425160e-04      -1.79085323e-04      -3.76289906e-03 
      -1.94425160e-04      -1.79085323e-04      -3.76289906e-03 
       1.81513814e-05       1.22989953e-05      -6.72369039e-04 
       1.81513814e-05       1.22989953e-05      -6.72369039e-04 
       1.81513814e-05       1.22989953e-05      -6.72369039e-04 
       1.81513814e-05       1.22989953e-05      -6.72369039e-04 
      -1.94425160e-04      -1.79085323e-04      -3.76289906e-03 
      -1.94425160e-04      -1.79085323e-04      -3.76289906e-03 
      -1.94425160e-04      -1.79085323e-04      -3.76289906e-03 
      -1.94425160e-04      -1.79085323e-04      -3.76289906e-03 
      -8.81368893e-05      -8.33931636e-05      -2.21763405e-03 
      -8.81368893e-05      -8.33931636e-05      -2.21763405e-03 
      -8.81368893e-05      -8.33931636e-05      -2.21763405e-03 
      -8.81368893e-05      -8.33931636e-05      -2.21763405e-03 
      -1.84806055e-05       1.22991460e-05      -6.72403718e-04 
      -1.84806055e-05       1.22991460e-05      -6.72403718e-04 
      -1.84806055e-05       1.22991460e-05      -6.72403718e-04 
      -1.84806055e-05       1.22991460e-05      -6.72403718e-04 
       1.95012883e-04       2.10811687e-04      -3.82020139e-03 
       1.95012883e-04       2.10811687e-04      -3.82020139e-03 
       1.95012883e-04       2.10811687e-04      -3.82020139e-03 
       1.95012883e-04       2.10811687e-04      -3.82020139e-03 
      -1.84806055e-05       1.22991460e-05      -6.72403718e-04 
      -1.84806055e-05       1.22991460e-05      -6.72403718e-04 
      -1.84806055e-05       1.22991460e-05      -6.72403718e-04 
      -1.84806055e-05       1.22991460e-05      -6.72403718e-04 
       1.95012883e-04       2.10811687e-04      -3.82020139e-03 
       1.95012883e-04       2.10811687e-04      -3.82020139e-03 
       1.95012883e-04       2.10811687e-04      -3.82020139e-03 
       1.95012883e-04       2.10811687e-04      -3.82020139e-03 
       8.82661387e-05       1.11555416e-04      -2.24630255e-03 
       8.82661387e-05       1.11555416e-04      -2.24630255e-03 
       8.82661387e-05       1.11555416e-04      -2.24630255e-03 
       8.82661387e-05       1.11555416e-04      -2.24630255e-03 
      -1.84806055e-05       1.22991460e-05      -6.72403718e-04 
      -1.84806055e-05       1.22991460e-05      -6.72403718e-04 
      -1.84806055e-05       1.22991460e-05      -6.72403718e-04 
      -1.84806055e-05       1.22991460e-05      -6.72403718e-04 
      -1.64495778e-07       3.09823331e-05      -6.73709692e-04 
      -1.64495778e-07       3.09823331e-05      -6.73709692e-04 