# vtk DataFile Version 2.0
./output/Static_Tower/Static_Tower_0000.vtk
ASCII
DATASET UNSTRUCTURED_GRID

POINTS 13260 float
      -4.427466e+00       4.404289e+00      -9.630159e-03 
      -4.400660e+00       4.406969e+00      -9.630159e-03 
      -4.402534e+00       4.425711e+00       9.630159e-03 
      -4.429340e+00       4.423031e+00       9.630159e-03 
      -3.986166e+00      -1.071089e-02       4.329570e+00 
      -3.959360e+00      -8.031496e-03       4.329570e+00 
      -3.961234e+00       1.071089e-02       4.348830e+00 
      -3.988040e+00       8.031496e-03       4.348830e+00 
      -4.413675e+00       4.401747e+00      -1.361910e-02 
      -4.396045e+00       4.416895e+00       0.000000e+00 
      -4.416325e+00       4.428253e+00       1.361910e-02 
      -4.433955e+00       4.413105e+00       0.000000e+00 
      -3.972375e+00      -1.325287e-02       4.325581e+00 
      -3.954745e+00       1.894619e-03       4.339200e+00 
      -3.975025e+00       1.325287e-02       4.352819e+00 
      -3.992655e+00      -1.894619e-03       4.339200e+00 
      -4.206816e+00       2.196789e+00       2.159970e+00 
      -4.180010e+00       2.199469e+00       2.159970e+00 
      -4.181884e+00       2.218211e+00       2.179230e+00 
      -4.208690e+00       2.215531e+00       2.179230e+00 
       4.400660e+00       4.406969e+00      -9.630159e-03 
       4.427466e+00       4.404289e+00      -9.630159e-03 
       4.429340e+00       4.423031e+00       9.630159e-03 
       4.402534e+00       4.425711e+00       9.630159e-03 
       3.959360e+00      -8.031496e-03       4.329570e+00 
       3.986166e+00      -1.071089e-02       4.329570e+00 
       3.988040e+00       8.031496e-03       4.348830e+00 
       3.961234e+00       1.071089e-02       4.348830e+00 
       4.413675e+00       4.401747e+00      -1.361910e-02 
       4.433955e+00       4.413105e+00       0.000000e+00 
       4.416325e+00       4.428253e+00       1.361910e-02 
       4.396045e+00       4.416895e+00       0.000000e+00 
       3.972375e+00      -1.325287e-02       4.325581e+00 
       3.992655e+00      -1.894619e-03       4.339200e+00 
       3.975025e+00       1.325287e-02       4.352819e+00 
       3.954745e+00       1.894619e-03       4.339200e+00 
       4.180010e+00       2.199469e+00       2.159970e+00 
       4.206816e+00       2.196789e+00       2.159970e+00 
       4.208690e+00       2.215531e+00       2.179230e+00 
       4.181884e+00       2.218211e+00       2.179230e+00 
      -4.400660e+00      -4.406969e+00      -9.630159e-03 
      -4.427466e+00      -4.404289e+00      -9.630159e-03 
      -4.429340e+00      -4.423031e+00       9.630159e-03 
      -4.402534e+00      -4.425711e+00       9.630159e-03 
      -3.959360e+00       8.031496e-03       4.329570e+00 
      -3.986166e+00       1.071089e-02       4.329570e+00 
      -3.988040e+00      -8.031496e-03       4.348830e+00 
      -3.961234e+00      -1.071089e-02       4.348830e+00 
      -4.413675e+00      -4.401747e+00      -1.361910e-02 
      -4.433955e+00      -4.413105e+00       0.000000e+00 
      -4.416325e+00      -4.428253e+00       1.361910e-02 
      -4.396045e+00      -4.416895e+00       0.000000e+00 
      -3.972375e+00       1.325287e-02       4.325581e+00 
      -3.992655e+00       1.894619e-03       4.339200e+00 
      -3.975025e+00      -1.325287e-02       4.352819e+00 
      -3.954745e+00      -1.894619e-03       4.339200e+00 
      -4.180010e+00      -2.199469e+00       2.159970e+00 
      -4.206816e+00      -2.196789e+00       2.159970e+00 
      -4.208690e+00      -2.215531e+00       2.179230e+00 
      -4.181884e+00      -2.218211e+00       2.179230e+00 
      -4.406969e+00       4.400660e+00      -9.630159e-03 
      -4.404289e+00       4.427466e+00      -9.630159e-03 
      -4.423031e+00       4.429340e+00       9.630159e-03 
      -4.425711e+00       4.402534e+00       9.630159e-03 
       8.031496e-03       3.959360e+00       4.329570e+00 
       1.071089e-02       3.986166e+00       4.329570e+00 
      -8.031496e-03       3.988040e+00       4.348830e+00 
      -1.071089e-02       3.961234e+00       4.348830e+00 
      -4.401747e+00       4.413675e+00      -1.361910e-02 
      -4.413105e+00       4.433955e+00       0.000000e+00 
      -4.428253e+00       4.416325e+00       1.361910e-02 
      -4.416895e+00       4.396045e+00       0.000000e+00 
       1.325287e-02       3.972375e+00       4.325581e+00 
       1.894619e-03       3.992655e+00       4.339200e+00 
      -1.325287e-02       3.975025e+00       4.352819e+00 
      -1.894619e-03       3.954745e+00       4.339200e+00 
      -2.199469e+00       4.180010e+00       2.159970e+00 
      -2.196789e+00       4.206816e+00       2.159970e+00 
      -2.215531e+00       4.208690e+00       2.179230e+00 
      -2.218211e+00       4.181884e+00       2.179230e+00 
      -4.404289e+00      -4.427466e+00      -9.630159e-03 
      -4.406969e+00      -4.400660e+00      -9.630159e-03 
      -4.425711e+00      -4.402534e+00       9.630159e-03 
      -4.423031e+00      -4.429340e+00       9.630159e-03 
       1.071089e-02      -3.986166e+00       4.329570e+00 
       8.031496e-03      -3.959360e+00       4.329570e+00 
      -1.071089e-02      -3.961234e+00       4.348830e+00 
      -8.031496e-03      -3.988040e+00       4.348830e+00 
      -4.401747e+00      -4.413675e+00      -1.361910e-02 
      -4.416895e+00      -4.396045e+00       0.000000e+00 
      -4.428253e+00      -4.416325e+00       1.361910e-02 
      -4.413105e+00      -4.433955e+00       0.000000e+00 
       1.325287e-02      -3.972375e+00       4.325581e+00 
      -1.894619e-03      -3.954745e+00       4.339200e+00 
      -1.325287e-02      -3.975025e+00       4.352819e+00 
       1.894619e-03      -3.992655e+00       4.339200e+00 
      -2.196789e+00      -4.206816e+00       2.159970e+00 
      -2.199469e+00      -4.180010e+00       2.159970e+00 
      -2.218211e+00      -4.181884e+00       2.179230e+00 
      -2.215531e+00      -4.208690e+00       2.179230e+00 
       4.404289e+00       4.427466e+00      -9.630159e-03 
       4.406969e+00       4.400660e+00      -9.630159e-03 
       4.425711e+00       4.402534e+00       9.630159e-03 
       4.423031e+00       4.429340e+00       9.630159e-03 
      -1.071089e-02       3.986166e+00       4.329570e+00 
      -8.031496e-03       3.959360e+00       4.329570e+00 
       1.071089e-02       3.961234e+00       4.348830e+00 
       8.031496e-03       3.988040e+00       4.348830e+00 
       4.401747e+00       4.413675e+00      -1.361910e-02 
       4.416895e+00       4.396045e+00       0.000000e+00 
       4.428253e+00       4.416325e+00       1.361910e-02 
       4.413105e+00       4.433955e+00       0.000000e+00 
      -1.325287e-02       3.972375e+00       4.325581e+00 
       1.894619e-03       3.954745e+00       4.339200e+00 
       1.325287e-02       3.975025e+00       4.352819e+00 
      -1.894619e-03       3.992655e+00       4.339200e+00 
       2.196789e+00       4.206816e+00       2.159970e+00 
       2.199469e+00       4.180010e+00       2.159970e+00 
       2.218211e+00       4.181884e+00       2.179230e+00 
       2.215531e+00       4.208690e+00       2.179230e+00 
       4.427466e+00      -4.404289e+00      -9.630159e-03 
       4.400660e+00      -4.406969e+00      -9.630159e-03 
       4.402534e+00      -4.425711e+00       9.630159e-03 
       4.429340e+00      -4.423031e+00       9.630159e-03 
       3.986166e+00       1.071089e-02       4.329570e+00 
       3.959360e+00       8.031496e-03       4.329570e+00 
       3.961234e+00      -1.071089e-02       4.348830e+00 
       3.988040e+00      -8.031496e-03       4.348830e+00 
       4.413675e+00      -4.401747e+00      -1.361910e-02 
       4.396045e+00      -4.416895e+00       0.000000e+00 
       4.416325e+00      -4.428253e+00       1.361910e-02 
       4.433955e+00      -4.413105e+00       0.000000e+00 
       3.972375e+00       1.325287e-02       4.325581e+00 
       3.954745e+00      -1.894619e-03       4.339200e+00 
       3.975025e+00      -1.325287e-02       4.352819e+00 
       3.992655e+00       1.894619e-03       4.339200e+00 
       4.206816e+00      -2.196789e+00       2.159970e+00 
       4.180010e+00      -2.199469e+00       2.159970e+00 
       4.181884e+00      -2.218211e+00       2.179230e+00 
       4.208690e+00      -2.215531e+00       2.179230e+00 
       4.406969e+00      -4.400660e+00      -9.630159e-03 
       4.404289e+00      -4.427466e+00      -9.630159e-03 
       4.423031e+00      -4.429340e+00       9.630159e-03 
       4.425711e+00      -4.402534e+00       9.630159e-03 
      -8.031496e-03      -3.959360e+00       4.329570e+00 
      -1.071089e-02      -3.986166e+00       4.329570e+00 
       8.031496e-03      -3.988040e+00       4.348830e+00 
       1.071089e-02      -3.961234e+00       4.348830e+00 
       4.401747e+00      -4.413675e+00      -1.361910e-02 
       4.413105e+00      -4.433955e+00       0.000000e+00 
       4.428253e+00      -4.416325e+00       1.361910e-02 
       4.416895e+00      -4.396045e+00       0.000000e+00 
      -1.325287e-02      -3.972375e+00       4.325581e+00 
      -1.894619e-03      -3.992655e+00       4.339200e+00 
       1.325287e-02      -3.975025e+00       4.352819e+00 
       1.894619e-03      -3.954745e+00       4.339200e+00 
       2.199469e+00      -4.180010e+00       2.159970e+00 
       2.196789e+00      -4.206816e+00       2.159970e+00 
       2.215531e+00      -4.208690e+00       2.179230e+00 
       2.218211e+00      -4.181884e+00       2.179230e+00 
      -4.381887e+00      -4.415169e+00      -3.350371e-03 
      -4.415169e+00      -4.381887e+00      -3.350371e-03 
      -4.448113e+00      -4.414831e+00       3.350371e-03 
      -4.414831e+00      -4.448113e+00       3.350371e-03 
      -3.940587e+00      -3.973869e+00       4.335850e+00 
      -3.973869e+00      -3.940587e+00       4.335850e+00 
      -4.006813e+00      -3.973531e+00       4.342550e+00 
[...]
POINT_DATA     13260 
VECTORS Displacements float
       0.00000000e+00       0.00000000e+00       0.00000000e+00 
       0.00000000e+00       0.00000000e+00       0.00000000e+00 
       0.00000000e+00       0.00000000e+00       0.00000000e+00 
       0.00000000e+00       0.00000000e+00       0.00000000e+00 
       0.00000000e+00       0.00000000e+00       0.00000000e+00 
       0.00000000e+00       0.00000000e+00       0.00000000e+00 
       0.00000000e+00       0.00000000e+00       0.00000000e+00 
       0.00000000e+00       0.00000000e+00       0.00000000e+00 
       0.00000000e+00       0.00000000e+00       0.00000000e+00 
       0.00000000e+00       0.00000000e+00       0.00000000e+00 
       0.00000000e+00       0.00000000e+00       0.00000000e+00 
       0.00000000e+00       0.00000000e+00       0.00000000e+00 
       0.00000000e+00       0.00000000e+00       0.00000000e+00 
       0.00000000e+00       0.00000000e+00       0.00000000e+00 
       0.00000000e+00       0.00000000e+00       0.00000000e+00 
       0.00000000e+00       0.00000000e+00       0.00000000e+00 
       0.00000000e+00       0.00000000e+00       0.00000000e+00 
       0.00000000e+00       0.00000000e+00       0.00000000e+00 
       0.00000000e+00       0.00000000e+00       0.00000000e+00 
       0.00000000e+00       0.00000000e+00       0.00000000e+00 
       0.00000000e+00       0.00000000e+00       0.00000000e+00 
       0.00000000e+00       0.00000000e+00       0.00000000e+00 
       0.00000000e+00       0.00000000e+00       0.00000000e+00 
       0.00000000e+00       0.00000000e+00       0.00000000e+00 
       0.00000000e+00       0.00000000e+00       0.00000000e+00 
       0.00000000e+00       0.00000000e+00       0.00000000e+00 
       0.00000000e+00       0.00000000e+00       0.00000000e+00 
       0.00000000e+00       0.00000000e+00       0.00000000e+00 
       0.00000000e+00       0.00000000e+00       0.00000000e+00 
       0.00000000e+00       0.00000000e+00       0.00000000e+00 
       0.00000000e+00       0.00000000e+00       0.00000000e+00 
       0.00000000e+00       0.00000000e+00       0.00000000e+00 
       0.00000000e+00       0.00000000e+00       0.00000000e+00 
       0.00000000e+00       0.00000000e+00       0.00000000e+00 
       0.00000000e+00       0.00000000e+00       0.00000000e+00 
       0.00000000e+00       0.00000000e+00       0.00000000e+00 
       0.00000000e+00       0.00000000e+00       0.00000000e+00 
       0.00000000e+00       0.00000000e+00       0.00000000e+00 
       0.00000000e+00       0.00000000e+00       0.00000000e+00 
       0.00000000e+00       0.00000000e+00       0.00000000e+00 
       0.00000000e+00       0.00000000e+00       0.00000000e+00 
       0.00000000e+00       0.00000000e+00       0.00000000e+00 
       0.00000000e+00       0.00000000e+00       0.00000000e+00 
       0.00000000e+00       0.00000000e+00       0.00000000e+00 
       0.00000000e+00       0.00000000e+00       0.00000000e+00 
       0.00000000e+00       0.00000000e+00       0.00000000e+00 
       0.00000000e+00       0.00000000e+00       0.00000000e+00 
       0.00000000e+00       0.00000000e+00       0.00000000e+00 
       0.00000000e+00       0.00000000e+00       0.00000000e+00 
       0.00000000e+00       0.00000000e+00       0.00000000e+00 
       0.00000000e+00       0.00000000e+00       0.00000000e+00 
       0.00000000e+00       0.00000000e+00       0.00000000e+00 
       0.00000000e+00       0.00000000e+00       0.00000000e+00 
       0.00000000e+00       0.00000000e+00       0.00000000e+00 
       0.00000000e+00       0.00000000e+00       0.00000000e+00 
       0.00000000e+00       0.00000000e+00       0.00000000e+00 
       0.00000000e+00       0.00000000e+00       0.00000000e+00 
       0.00000000e+00       0.00000000e+00       0.00000000e+00 
       0.00000000e+00       0.00000000e+00       0.00000000e+00 
       0.00000000e+00       0.00000000e+00       0.00000000e+00 
       0.00000000e+00       0.00000000e+00       0.00000000e+00 
       0.00000000e+00       0.00000000e+00       0.00000000e+00 
       0.00000000e+00       0.00000000e+00       0.00000000e+00 
       0.00000000e+00       0.00000000e+00       0.00000000e+00 
       0.00000000e+00       0.00000000e+00       0.00000000e+00 
       0.00000000e+00       0.00000000e+00       0.00000000e+00 
       0.00000000e+00       0.00000000e+00       0.00000000e+00 
       0.00000000e+00       0.00000000e+00       0.00000000e+00 
       0.00000000e+00       0.00000000e+00       0.00000000e+00 
       0.00000000e+00       0.00000000e+00       0.00000000e+00 
       0.00000000e+00       0.00000000e+00       0.00000000e+00 
       0.00000000e+00       0.00000000e+00       0.00000000e+00 
       0.00000000e+00       0.00000000e+00       0.00000000e+00 
       0.00000000e+00       0.00000000e+00       0.00000000e+00 
       0.00000000e+00       0.00000000e+00       0.00000000e+00 
       0.00000000e+00       0.00000000e+00       0.00000000e+00 
       0.00000000e+00       0.00000000e+00       0.00000000e+00 
       0.00000000e+00       0.00000000e+00       0.00000000e+00 
       0.00000000e+00       0.00000000e+00       0.00000000e+00 
       0.00000000e+00       0.00000000e+00       0.00000000e+00 
       0.00000000e+00       0.00000000e+00       0.00000000e+00 
       0.00000000e+00       0.00000000e+00       0.00000000e+00 
       0.00000000e+00       0.00000000e+00       0.00000000e+00 
       0.00000000e+00       0.00000000e+00       0.00000000e+00 
       0.00000000e+00       0.00000000e+00       0.00000000e+00 
       0.00000000e+00       0.00000000e+00       0.00000000e+00 
       0.00000000e+00       0.00000000e+00       0.00000000e+00 
       0.00000000e+00       0.00000000e+00       0.00000000e+00 
       0.00000000e+00       0.00000000e+00       0.00000000e+00 
       0.00000000e+00       0.00000000e+00       0.00000000e+00 
       0.00000000e+00       0.00000000e+00       0.00000000e+00 
       0.00000000e+00       0.00000000e+00       0.00000000e+00 
       0.00000000e+00       0.00000000e+00       0.00000000e+00 
       0.00000000e+00       0.00000000e+00       0.00000000e+00 
       0.00000000e+00       0.00000000e+00       0.00000000e+00 
       0.00000000e+00       0.00000000e+00       0.00000000e+00 
       0.00000000e+00       0.00000000e+00       0.00000000e+00 
       0.00000000e+00       0.00000000e+00       0.00000000e+00 
       0.00000000e+00       0.00000000e+00       0.00000000e+00 
       0.00000000e+00       0.00000000e+00       0.00000000e+00 
       0.00000000e+00       0.00000000e+00       0.00000000e+00 
       0.00000000e+00       0.00000000e+00       0.00000000e+00 
       0.00000000e+00       0.00000000e+00       0.00000000e+00 
       0.00000000e+00       0.00000000e+00       0.00000000e+00 
       0.00000000e+00       0.00000000e+00       0.00000000e+00 
       0.00000000e+00       0.00000000e+00       0.00000000e+00 
       0.00000000e+00       0.00000000e+00       0.00000000e+00 
       0.00000000e+00       0.00000000e+00       0.00000000e+00 
       0.00000000e+00       0.00000000e+00       0.00000000e+00 
       0.00000000e+00       0.00000000e+00       0.00000000e+00 
       0.00000000e+00       0.00000000e+00       0.00000000e+00 
       0.00000000e+00       0.00000000e+00       0.00000000e+00 
       0.00000000e+00       0.00000000e+00       0.00000000e+00 
       0.00000000e+00       0.00000000e+00       0.00000000e+00 
       0.00000000e+00       0.00000000e+00       0.00000000e+00 
       0.00000000e+00       0.00000000e+00       0.00000000e+00 
       0.00000000e+00       0.00000000e+00       0.00000000e+00 
       0.00000000e+00       0.00000000e+00       0.00000000e+00 
       0.00000000e+00       0.00000000e+00       0.00000000e+00 
       0.00000000e+00       0.00000000e+00       0.00000000e+00 
       0.00000000e+00       0.00000000e+00       0.00000000e+00 
       0.00000000e+00       0.00000000e+00       0.00000000e+00 
       0.00000000e+00       0.00000000e+00       0.00000000e+00 
       0.00000000e+00       0.00000000e+00       0.00000000e+00 
       0.00000000e+00       0.00000000e+00       0.00000000e+00 
       0.00000000e+00       0.00000000e+00       0.00000000e+00 
       0.00000000e+00       0.00000000e+00       0.00000000e+00 
       0.00000000e+00       0.00000000e+00       0.00000000e+00 
       0.00000000e+00       0.00000000e+00       0.00000000e+00 
       0.00000000e+00       0.00000000e+00       0.00000000e+00 
       0.00000000e+00       0.00000000e+00       0.00000000e+00 
       0.00000000e+00       0.00000000e+00       0.00000000e+00 
       0.00000000e+00       0.00000000e+00       0.00000000e+00 
       0.00000000e+00       0.00000000e+00       0.00000000e+00 
       0.00000000e+00       0.00000000e+00       0.00000000e+00 
       0.00000000e+00       0.00000000e+00       0.00000000e+00 
       0.00000000e+00       0.00000000e+00       0.00000000e+00 
       0.00000000e+00       0.00000000e+00       0.00000000e+00 
       0.00000000e+00       0.00000000e+00       0.00000000e+00 
       0.00000000e+00       0.00000000e+00       0.00000000e+00 
       0.00000000e+00       0.00000000e+00       0.00000000e+00 
       0.00000000e+00       0.00000000e+00       0.00000000e+00 
       0.00000000e+00       0.00000000e+00       0.00000000e+00 
       0.00000000e+00       0.00000000e+00       0.00000000e+00 
       0.00000000e+00       0.00000000e+00       0.00000000e+00 
       0.00000000e+00       0.00000000e+00       0.00000000e+00 
       0.00000000e+00       0.00000000e+00       0.00000000e+00 
       0.00000000e+00       0.00000000e+00       0.00000000e+00 
       0.00000000e+00       0.00000000e+00       0.00000000e+00 
       0.00000000e+00       0.00000000e+00       0.00000000e+00 
       0.00000000e+00       0.00000000e+00       0.00000000e+00 
       0.00000000e+00       0.00000000e+00       0.00000000e+00 
       0.00000000e+00       0.00000000e+00       0.00000000e+00 
       0.00000000e+00       0.00000000e+00       0.00000000e+00 
       0.00000000e+00       0.00000000e+00       0.00000000e+00 
       0.00000000e+00       0.00000000e+00       0.00000000e+00 
       0.00000000e+00       0.00000000e+00       0.00000000e+00 
       0.00000000e+00       0.00000000e+00       0.00000000e+00 
       0.00000000e+00       0.00000000e+00       0.00000000e+00 
       0.00000000e+00       0.00000000e+00       0.00000000e+00 
       0.00000000e+00       0.00000000e+00       0.00000000e+00 
       0.00000000e+00       0.00000000e+00       0.00000000e+00 
       0.00000000e+00       0.00000000e+00       0.00000000e+00 
       0.00000000e+00       0.00000000e+00       0.00000000e+00 
       0.00000000e+00       0.00000000e+00       0.00000000e+00 
       0.00000000e+00       0.00000000e+00       0.00000000e+00 
       0.00000000e+00       0.00000000e+00       0.00000000e+00 
       0.00000000e+00       0.00000000e+00       0.00000000e+00 
       0.00000000e+00       0.00000000e+00       0.00000000e+00 
       0.00000000e+00       0.00000000e+00       0.00000000e+00 
       0.00000000e+00       0.00000000e+00       0.00000000e+00 
       0.00000000e+00       0.00000000e+00       0.00000000e+00 
       0.00000000e+00       0.00000000e+00       0.00000000e+00 
       0.00000000e+00       0.00000000e+00       0.00000000e+00 
       0.00000000e+00       0.00000000e+00       0.00000000e+00 
       0.00000000e+00       0.00000000e+00       0.00000000e+00 
       0.00000000e+00       0.00000000e+00       0.00000000e+00 
       0.00000000e+00       0.00000000e+00       0.00000000e+00 
       0.00000000e+00       0.00000000e+00       0.00000000e+00 
       0.00000000e+00       0.00000000e+00       0.00000000e+00 
       0.00000000e+00       0.00000000e+00       0.00000000e+00 
       0.00000000e+00       0.00000000e+00       0.00000000e+00 
       0.00000000e+00       0.00000000e+00       0.00000000e+00 
       0.00000000e+00       0.00000000e+00       0.00000000e+00 
       0.00000000e+00       0.00000000e+00       0.00000000e+00 
       0.00000000e+00       0.00000000e+00       0.00000000e+00 
       0.00000000e+00       0.00000000e+00       0.00000000e+00 
       0.00000000e+00       0.00000000e+00       0.00000000e+00 
       0.00000000e+00       0.00000000e+00       0.00000000e+00 
       0.00000000e+00       0.00000000e+00       0.00000000e+00 
       0.00000000e+00       0.00000000e+00       0.00000000e+00 
       0.00000000e+00       0.00000000e+00       0.00000000e+00 
       0.00000000e+00       0.00000000e+00       0.00000000e+00 
       0.00000000e+00       0.00000000e+00       0.00000000e+00 
       0.00000000e+00       0.00000000e+00       0.00000000e+00 
       0.00000000e+00       0.00000000e+00       0.00000000e+00 
       0.00000000e+00       0.00000000e+00       0.00000000e+00 
       0.00000000e+00       0.00000000e+00       0.00000000e+00 
       0.00000000e+00       0.00000000e+00       0.00000000e+00 
       0.00000000e+00       0.00000000e+00       0.00000000e+00 
       0.00000000e+00       0.00000000e+00       0.00000000e+00 
       0.00000000e+00       0.00000000e+00       0.00000000e+00 
       0.00000000e+00       0.00000000e+00       0.00000000e+00 
       0.00000000e+00       0.00000000e+00       0.00000000e+00 
       0.00000000e+00       0.00000000e+00       0.00000000e+00 
       0.00000000e+00       0.00000000e+00       0.00000000e+00 
       0.00000000e+00       0.00000000e+00       0.00000000e+00 
       0.00000000e+00       0.00000000e+00       0.00000000e+00 
       0.00000000e+00       0.00000000e+00       0.00000000e+00 
       0.00000000e+00       0.00000000e+00       0.00000000e+00 
       0.00000000e+00       0.00000000e+00       0.00000000e+00 
       0.00000000e+00       0.00000000e+00       0.00000000e+00 
       0.00000000e+00       0.00000000e+00       0.00000000e+00 
       0.00000000e+00       0.00000000e+00       0.00000000e+00 
       0.00000000e+00       0.00000000e+00       0.00000000e+00 
       0.00000000e+00       0.00000000e+00       0.00000000e+00 
       0.00000000e+00       0.00000000e+00       0.00000000e+00 
       0.00000000e+00       0.00000000e+00       0.00000000e+00 
       0.00000000e+00       0.00000000e+00       0.00000000e+00 
       0.00000000e+00       0.00000000e+00       0.00000000e+00 
       0.00000000e+00       0.00000000e+00       0.00000000e+00 
       0.00000000e+00       0.00000000e+00       0.00000000e+00 
       0.00000000e+00       0.00000000e+00       0.00000000e+00 
       0.00000000e+00       0.00000000e+00       0.00000000e+00 
       0.00000000e+00       0.00000000e+00       0.00000000e+00 
       0.00000000e+00       0.00000000e+00       0.00000000e+00 
       0.00000000e+00       0.00000000e+00       0.00000000e+00 
       0.00000000e+00       0.00000000e+00       0.00000000e+00 
       0.00000000e+00       0.00000000e+00       0.00000000e+00 
       0.00000000e+00       0.00000000e+00       0.00000000e+00 
       0.00000000e+00       0.00000000e+00       0.00000000e+00 
       0.00000000e+00       0.00000000e+00       0.00000000e+00 
       0.00000000e+00       0.00000000e+00       0.00000000e+00 
       0.00000000e+00       0.00000000e+00       0.00000000e+00 
       0.00000000e+00       0.00000000e+00       0.00000000e+00 
       0.00000000e+00       0.00000000e+00       0.00000000e+00 
       0.00000000e+00       0.00000000e+00       0.00000000e+00 
       0.00000000e+00       0.00000000e+00       0.00000000e+00 
       0.00000000e+00       0.00000000e+00       0.00000000e+00 
       0.00000000e+00       0.00000000e+00       0.00000000e+00 
       0.00000000e+00       0.00000000e+00       0.00000000e+00 
       0.00000000e+00       0.00000000e+00       0.00000000e+00 
       0.00000000e+00       0.00000000e+00       0.00000000e+00 
       0.00000000e+00       0.00000000e+00       0.00000000e+00 
       0.00000000e+00       0.00000000e+00       0.00000000e+00 
       0.00000000e+00       0.00000000e+00       0.00000000e+00 
       0.00000000e+00       0.00000000e+00       0.00000000e+00 
       0.00000000e+00       0.00000000e+00       0.00000000e+00 
       0.00000000e+00       0.00000000e+00       0.00000000e+00 
       0.00000000e+00       0.00000000e+00       0.00000000e+00 
       0.00000000e+00       0.00000000e+00       0.00000000e+00 
       0.00000000e+00       0.00000000e+00       0.00000000e+00 
       0.00000000e+00       0.00000000e+00       0.00000000e+00 
       0.00000000e+00       0.00000000e+00       0.00000000e+00 
       0.00000000e+00       0.00000000e+00       0.00000000e+00 
       0.00000000e+00       0.00000000e+00       0.00000000e+00 
       0.00000000e+00       0.00000000e+00       0.00000000e+00 
       0.00000000e+00       0.00000000e+00       0.00000000e+00 
       0.00000000e+00       0.00000000e+00       0.00000000e+00 
       0.00000000e+00       0.00000000e+00       0.00000000e+00 
       0.00000000e+00       0.00000000e+00       0.00000000e+00 
       0.00000000e+00       0.00000000e+00       0.00000000e+00 
       0.00000000e+00       0.00000000e+00       0.00000000e+00 
       0.00000000e+00       0.00000000e+00       0.00000000e+00 
       0.00000000e+00       0.00000000e+00       0.00000000e+00 
       0.00000000e+00       0.00000000e+00       0.00000000e+00 
       0.00000000e+00       0.00000000e+00       0.00000000e+00 
       0.00000000e+00       0.00000000e+00       0.00000000e+00 
       0.00000000e+00       0.00000000e+00       0.00000000e+00 
       0.00000000e+00       0.00000000e+00       0.00000000e+00 
       0.00000000e+00       0.00000000e+00       0.00000000e+00 
       0.00000000e+00       0.00000000e+00       0.00000000e+00 
       0.00000000e+00       0.00000000e+00       0.00000000e+00 
       0.00000000e+00       0.00000000e+00       0.00000000e+00 
       0.00000000e+00       0.00000000e+00       0.00000000e+00 
       0.00000000e+00       0.00000000e+00       0.00000000e+00 
       0.00000000e+00       0.00000000e+00       0.00000000e+00 
       0.00000000e+00       0.00000000e+00       0.00000000e+00 
       0.00000000e+00       0.00000000e+00       0.00000000e+00 
       0.00000000e+00       0.00000000e+00       0.00000000e+00 
       0.00000000e+00       0.00000000e+00       0.00000000e+00 
       0.00000000e+00       0.00000000e+00       0.00000000e+00 
       0.00000000e+00       0.00000000e+00       0.00000000e+00 
       0.00000000e+00       0.00000000e+00       0.00000000e+00 
       0.00000000e+00       0.00000000e+00       0.00000000e+00 
       0.00000000e+00       0.00000000e+00       0.00000000e+00 
       0.00000000e+00       0.00000000e+00       0.00000000e+00 
       0.00000000e+00       0.00000000e+00       0.00000000e+00 
       0.00000000e+00       0.00000000e+00       0.00000000e+00 
       0.00000000e+00       0.00000000e+00       0.00000000e+00 
       0.00000000e+00       0.00000000e+00       0.00000000e+00 
       0.00000000e+00       0.00000000e+00       0.00000000e+00 
       0.00000000e+00       0.00000000e+00       0.00000000e+00 
       0.00000000e+00       0.00000000e+00       0.00000000e+00 
       0.00000000e+00       0.00000000e+00       0.00000000e+00 
       0.00000000e+00       0.00000000e+00       0.00000000e+00 
       0.00000000e+00       0.00000000e+00       0.00000000e+00 
       0.00000000e+00       0.00000000e+00       0.00000000e+00 
       0.00000000e+00       0.00000000e+00       0.00000000e+00 
       0.00000000e+00       0.00000000e+00       0.00000000e+00 
       0.00000000e+00       0.00000000e+00       0.00000000e+00 
       0.00000000e+00       0.00000000e+00       0.00000000e+00 
       0.00000000e+00       0.00000000e+00       0.00000000e+00 
       0.00000000e+00       0.00000000e+00       0.00000000e+00 
       0.00000000e+00       0.00000000e+00       0.00000000e+00 
       0.00000000e+00       0.00000000e+00       0.00000000e+00 