# vtk DataFile Version 2.0
./output/Static_Tower/Static_Tower_0005.vtk
ASCII
DATASET UNSTRUCTURED_GRID

POINTS 13260 float
      -4.427465e+00       4.404288e+00      -9.630310e-03 
      -4.400659e+00       4.406970e+00      -9.630310e-03 
      -4.402535e+00       4.425712e+00       9.630310e-03 
      -4.429341e+00       4.423030e+00       9.630310e-03 
      -3.985698e+00      -1.071206e-02       4.329476e+00 
      -3.958892e+00      -8.029849e-03       4.329476e+00 
      -3.960767e+00       1.071204e-02       4.348737e+00 
      -3.987573e+00       8.029829e-03       4.348737e+00 
      -4.413674e+00       4.401747e+00      -1.361931e-02 
      -4.396045e+00       4.416897e+00       0.000000e+00 
      -4.416326e+00       4.428253e+00       1.361931e-02 
      -4.433955e+00       4.413103e+00       0.000000e+00 
      -3.971906e+00      -1.325252e-02       4.325487e+00 
      -3.954278e+00       1.896597e-03       4.339106e+00 
      -3.974558e+00       1.325250e-02       4.352726e+00 
      -3.992187e+00      -1.896617e-03       4.339106e+00 
      -4.206581e+00       2.196788e+00       2.159923e+00 
      -4.179776e+00       2.199470e+00       2.159923e+00 
      -4.181651e+00       2.218212e+00       2.179184e+00 
      -4.208457e+00       2.215530e+00       2.179184e+00 
       4.400661e+00       4.406967e+00      -9.630108e-03 
       4.427467e+00       4.404290e+00      -9.630108e-03 
       4.429339e+00       4.423033e+00       9.630108e-03 
       4.402533e+00       4.425710e+00       9.630108e-03 
       3.959826e+00      -8.033053e-03       4.329571e+00 
       3.986633e+00      -1.070965e-02       4.329571e+00 
       3.988504e+00       8.033032e-03       4.348831e+00 
       3.961698e+00       1.070963e-02       4.348831e+00 
       4.413677e+00       4.401747e+00      -1.361903e-02 
       4.433955e+00       4.413107e+00       0.000000e+00 
       4.416323e+00       4.428253e+00       1.361903e-02 
       4.396045e+00       4.416893e+00       0.000000e+00 
       3.972842e+00      -1.325309e-02       4.325582e+00 
       3.993120e+00      -1.892653e-03       4.339201e+00 
       3.975488e+00       1.325307e-02       4.352820e+00 
       3.955210e+00       1.892632e-03       4.339201e+00 
       4.180244e+00       2.199467e+00       2.159971e+00 
       4.207050e+00       2.196790e+00       2.159971e+00 
       4.208921e+00       2.215533e+00       2.179231e+00 
       4.182115e+00       2.218210e+00       2.179231e+00 
      -4.400659e+00      -4.406970e+00      -9.630310e-03 
      -4.427465e+00      -4.404288e+00      -9.630310e-03 
      -4.429341e+00      -4.423030e+00       9.630310e-03 
      -4.402535e+00      -4.425712e+00       9.630310e-03 
      -3.958892e+00       8.029829e-03       4.329476e+00 
      -3.985698e+00       1.071204e-02       4.329476e+00 
      -3.987573e+00      -8.029849e-03       4.348737e+00 
      -3.960767e+00      -1.071206e-02       4.348737e+00 
      -4.413674e+00      -4.401747e+00      -1.361931e-02 
      -4.433955e+00      -4.413103e+00       0.000000e+00 
      -4.416326e+00      -4.428253e+00       1.361931e-02 
      -4.396045e+00      -4.416897e+00       0.000000e+00 
      -3.971906e+00       1.325250e-02       4.325487e+00 
      -3.992187e+00       1.896597e-03       4.339106e+00 
      -3.974558e+00      -1.325252e-02       4.352726e+00 
      -3.954278e+00      -1.896617e-03       4.339106e+00 
      -4.179776e+00      -2.199470e+00       2.159923e+00 
      -4.206581e+00      -2.196788e+00       2.159923e+00 
      -4.208457e+00      -2.215530e+00       2.179184e+00 
      -4.181651e+00      -2.218212e+00       2.179184e+00 
      -4.406969e+00       4.400660e+00      -9.630689e-03 
      -4.404290e+00       4.427467e+00      -9.630689e-03 
      -4.423031e+00       4.429340e+00       9.630689e-03 
      -4.425710e+00       4.402533e+00       9.630689e-03 
       8.485706e-03       3.959359e+00       4.329523e+00 
       1.116484e-02       3.986165e+00       4.329523e+00 
      -7.576491e-03       3.988038e+00       4.348784e+00 
      -1.025562e-02       3.961232e+00       4.348784e+00 
      -4.401748e+00       4.413676e+00      -1.361985e-02 
      -4.413106e+00       4.433955e+00       0.000000e+00 
      -4.428252e+00       4.416324e+00       1.361985e-02 
      -4.416894e+00       4.396045e+00       0.000000e+00 
       1.370673e-02       3.972374e+00       4.325534e+00 
       2.349039e-03       3.992654e+00       4.339154e+00 
      -1.279751e-02       3.975023e+00       4.352774e+00 
      -1.439824e-03       3.954744e+00       4.339154e+00 
      -2.199242e+00       4.180010e+00       2.159946e+00 
      -2.196562e+00       4.206816e+00       2.159946e+00 
      -2.215304e+00       4.208689e+00       2.179208e+00 
      -2.217983e+00       4.181883e+00       2.179208e+00 
      -4.404290e+00      -4.427467e+00      -9.630689e-03 
      -4.406969e+00      -4.400660e+00      -9.630689e-03 
      -4.425710e+00      -4.402533e+00       9.630689e-03 
      -4.423031e+00      -4.429340e+00       9.630689e-03 
       1.116484e-02      -3.986165e+00       4.329523e+00 
       8.485706e-03      -3.959359e+00       4.329523e+00 
      -1.025562e-02      -3.961232e+00       4.348784e+00 
      -7.576492e-03      -3.988038e+00       4.348784e+00 
      -4.401748e+00      -4.413676e+00      -1.361985e-02 
      -4.416894e+00      -4.396045e+00       0.000000e+00 
      -4.428252e+00      -4.416324e+00       1.361985e-02 
      -4.413106e+00      -4.433955e+00       0.000000e+00 
       1.370673e-02      -3.972374e+00       4.325534e+00 
      -1.439824e-03      -3.954744e+00       4.339154e+00 
      -1.279751e-02      -3.975023e+00       4.352774e+00 
       2.349038e-03      -3.992654e+00       4.339154e+00 
      -2.196562e+00      -4.206816e+00       2.159946e+00 
      -2.199242e+00      -4.180010e+00       2.159946e+00 
      -2.217983e+00      -4.181883e+00       2.179208e+00 
      -2.215304e+00      -4.208689e+00       2.179208e+00 
       4.404289e+00       4.427466e+00      -9.629729e-03 
       4.406968e+00       4.400660e+00      -9.629729e-03 
       4.425711e+00       4.402534e+00       9.629729e-03 
       4.423032e+00       4.429340e+00       9.629729e-03 
      -1.025685e-02       3.986165e+00       4.329524e+00 
      -7.577176e-03       3.959359e+00       4.329524e+00 
       1.116607e-02       3.961233e+00       4.348783e+00 
       8.486390e-03       3.988039e+00       4.348783e+00 
       4.401747e+00       4.413675e+00      -1.361849e-02 
       4.416895e+00       4.396045e+00       0.000000e+00 
       4.428253e+00       4.416325e+00       1.361849e-02 
       4.413105e+00       4.433955e+00       0.000000e+00 
      -1.279887e-02       3.972374e+00       4.325535e+00 
       2.349425e-03       3.954744e+00       4.339154e+00 
       1.370808e-02       3.975024e+00       4.352772e+00 
      -1.440210e-03       3.992654e+00       4.339154e+00 
       2.197016e+00       4.206816e+00       2.159947e+00 
       2.199696e+00       4.180010e+00       2.159947e+00 
       2.218439e+00       4.181883e+00       2.179207e+00 
       2.215759e+00       4.208689e+00       2.179207e+00 
       4.427467e+00      -4.404290e+00      -9.630108e-03 
       4.400661e+00      -4.406967e+00      -9.630108e-03 
       4.402533e+00      -4.425710e+00       9.630108e-03 
       4.429339e+00      -4.423033e+00       9.630108e-03 
       3.986633e+00       1.070963e-02       4.329571e+00 
       3.959826e+00       8.033032e-03       4.329571e+00 
       3.961698e+00      -1.070965e-02       4.348831e+00 
       3.988504e+00      -8.033053e-03       4.348831e+00 
       4.413677e+00      -4.401747e+00      -1.361903e-02 
       4.396045e+00      -4.416893e+00       0.000000e+00 
       4.416323e+00      -4.428253e+00       1.361903e-02 
       4.433955e+00      -4.413107e+00       0.000000e+00 
       3.972842e+00       1.325307e-02       4.325582e+00 
       3.955210e+00      -1.892653e-03       4.339201e+00 
       3.975488e+00      -1.325309e-02       4.352820e+00 
       3.993120e+00       1.892632e-03       4.339201e+00 
       4.207050e+00      -2.196790e+00       2.159971e+00 
       4.180244e+00      -2.199467e+00       2.159971e+00 
       4.182115e+00      -2.218210e+00       2.179231e+00 
       4.208921e+00      -2.215533e+00       2.179231e+00 
       4.406968e+00      -4.400660e+00      -9.629729e-03 
       4.404289e+00      -4.427466e+00      -9.629729e-03 
       4.423032e+00      -4.429340e+00       9.629729e-03 
       4.425711e+00      -4.402534e+00       9.629729e-03 
      -7.577176e-03      -3.959359e+00       4.329524e+00 
      -1.025685e-02      -3.986165e+00       4.329524e+00 
       8.486390e-03      -3.988039e+00       4.348784e+00 
       1.116607e-02      -3.961233e+00       4.348784e+00 
       4.401747e+00      -4.413675e+00      -1.361849e-02 
       4.413105e+00      -4.433955e+00       0.000000e+00 
       4.428253e+00      -4.416325e+00       1.361849e-02 
       4.416895e+00      -4.396045e+00       0.000000e+00 
      -1.279887e-02      -3.972374e+00       4.325535e+00 
      -1.440211e-03      -3.992654e+00       4.339154e+00 
       1.370808e-02      -3.975024e+00       4.352772e+00 
       2.349425e-03      -3.954744e+00       4.339154e+00 
       2.199696e+00      -4.180010e+00       2.159947e+00 
       2.197016e+00      -4.206816e+00       2.159947e+00 
       2.215759e+00      -4.208689e+00       2.179207e+00 
       2.218439e+00      -4.181883e+00       2.179207e+00 
      -4.381887e+00      -4.415191e+00      -3.352084e-03 
      -4.415148e+00      -4.381887e+00      -3.352084e-03 
      -4.448113e+00      -4.414809e+00       3.352084e-03 
      -4.414852e+00      -4.448113e+00       3.352084e-03 
      -3.940005e+00      -3.973882e+00       4.336491e+00 
      -3.973266e+00      -3.940578e+00       4.336491e+00 
      -4.006231e+00      -3.973500e+00       4.343195e+00 
[...]
POINT_DATA     13260 
VECTORS Displacements float
       0.00000000e+00       0.00000000e+00       0.00000000e+00 
       0.00000000e+00       0.00000000e+00       0.00000000e+00 
       0.00000000e+00       0.00000000e+00       0.00000000e+00 
       0.00000000e+00       0.00000000e+00       0.00000000e+00 
       4.67561466e-04      -1.01398416e-08      -9.36097328e-05 
       4.67561466e-04      -1.01398416e-08      -9.36097328e-05 
       4.67561466e-04      -1.01398416e-08      -9.36097328e-05 
       4.67561466e-04      -1.01398416e-08      -9.36097328e-05 
       0.00000000e+00       0.00000000e+00       0.00000000e+00 
       0.00000000e+00       0.00000000e+00       0.00000000e+00 
       0.00000000e+00       0.00000000e+00       0.00000000e+00 
       0.00000000e+00       0.00000000e+00       0.00000000e+00 
       4.67561466e-04      -1.01398416e-08      -9.36097328e-05 
       4.67561466e-04      -1.01398416e-08      -9.36097328e-05 
       4.67561466e-04      -1.01398416e-08      -9.36097328e-05 
       4.67561466e-04      -1.01398416e-08      -9.36097328e-05 
       2.33780733e-04      -5.06992081e-09      -4.68048664e-05 
       2.33780733e-04      -5.06992081e-09      -4.68048664e-05 
       2.33780733e-04      -5.06992081e-09      -4.68048664e-05 
       2.33780733e-04      -5.06992081e-09      -4.68048664e-05 
       0.00000000e+00       0.00000000e+00       0.00000000e+00 
       0.00000000e+00       0.00000000e+00       0.00000000e+00 
       0.00000000e+00       0.00000000e+00       0.00000000e+00 
       0.00000000e+00       0.00000000e+00       0.00000000e+00 
       4.65136407e-04      -1.04356586e-08       1.22891440e-06 
       4.65136407e-04      -1.04356586e-08       1.22891440e-06 
       4.65136407e-04      -1.04356586e-08       1.22891440e-06 
       4.65136407e-04      -1.04356586e-08       1.22891440e-06 
       0.00000000e+00       0.00000000e+00       0.00000000e+00 
       0.00000000e+00       0.00000000e+00       0.00000000e+00 
       0.00000000e+00       0.00000000e+00       0.00000000e+00 
       0.00000000e+00       0.00000000e+00       0.00000000e+00 
       4.65136407e-04      -1.04356586e-08       1.22891440e-06 
       4.65136407e-04      -1.04356586e-08       1.22891440e-06 
       4.65136407e-04      -1.04356586e-08       1.22891440e-06 
       4.65136407e-04      -1.04356586e-08       1.22891440e-06 
       2.32568204e-04      -5.21782928e-09       6.14457199e-07 
       2.32568204e-04      -5.21782928e-09       6.14457199e-07 
       2.32568204e-04      -5.21782928e-09       6.14457199e-07 
       2.32568204e-04      -5.21782928e-09       6.14457199e-07 
       0.00000000e+00       0.00000000e+00       0.00000000e+00 
       0.00000000e+00       0.00000000e+00       0.00000000e+00 
       0.00000000e+00       0.00000000e+00       0.00000000e+00 
       0.00000000e+00       0.00000000e+00       0.00000000e+00 
       4.67561466e-04      -1.01398416e-08      -9.36097328e-05 
       4.67561466e-04      -1.01398416e-08      -9.36097328e-05 
       4.67561466e-04      -1.01398416e-08      -9.36097328e-05 
       4.67561466e-04      -1.01398416e-08      -9.36097328e-05 
       0.00000000e+00       0.00000000e+00       0.00000000e+00 
       0.00000000e+00       0.00000000e+00       0.00000000e+00 
       0.00000000e+00       0.00000000e+00       0.00000000e+00 
       0.00000000e+00       0.00000000e+00       0.00000000e+00 
       4.67561466e-04      -1.01398416e-08      -9.36097328e-05 
       4.67561466e-04      -1.01398416e-08      -9.36097328e-05 
       4.67561466e-04      -1.01398416e-08      -9.36097328e-05 
       4.67561466e-04      -1.01398416e-08      -9.36097328e-05 
       2.33780733e-04      -5.06992081e-09      -4.68048664e-05 
       2.33780733e-04      -5.06992081e-09      -4.68048664e-05 
       2.33780733e-04      -5.06992081e-09      -4.68048664e-05 
       2.33780733e-04      -5.06992081e-09      -4.68048664e-05 
       0.00000000e+00       0.00000000e+00       0.00000000e+00 
       0.00000000e+00       0.00000000e+00       0.00000000e+00 
       0.00000000e+00       0.00000000e+00       0.00000000e+00 
       0.00000000e+00       0.00000000e+00       0.00000000e+00 
       4.54607352e-04      -1.22728785e-06      -4.62311637e-05 
       4.54607352e-04      -1.22728785e-06      -4.62311637e-05 
       4.54607352e-04      -1.22728785e-06      -4.62311637e-05 
       4.54607352e-04      -1.22728785e-06      -4.62311637e-05 
       0.00000000e+00       0.00000000e+00       0.00000000e+00 
       0.00000000e+00       0.00000000e+00       0.00000000e+00 
       0.00000000e+00       0.00000000e+00       0.00000000e+00 
       0.00000000e+00       0.00000000e+00       0.00000000e+00 
       4.54607352e-04      -1.22728785e-06      -4.62311637e-05 
       4.54607352e-04      -1.22728785e-06      -4.62311637e-05 
       4.54607352e-04      -1.22728785e-06      -4.62311637e-05 
       4.54607352e-04      -1.22728785e-06      -4.62311637e-05 
       2.27303676e-04      -6.13643925e-07      -2.31155819e-05 
       2.27303676e-04      -6.13643925e-07      -2.31155819e-05 
       2.27303676e-04      -6.13643925e-07      -2.31155819e-05 
       2.27303676e-04      -6.13643925e-07      -2.31155819e-05 
       0.00000000e+00       0.00000000e+00       0.00000000e+00 
       0.00000000e+00       0.00000000e+00       0.00000000e+00 
       0.00000000e+00       0.00000000e+00       0.00000000e+00 
       0.00000000e+00       0.00000000e+00       0.00000000e+00 
       4.54607103e-04       1.20671203e-06      -4.62290707e-05 
       4.54607103e-04       1.20671203e-06      -4.62290707e-05 
       4.54607103e-04       1.20671203e-06      -4.62290707e-05 
       4.54607103e-04       1.20671203e-06      -4.62290707e-05 
       0.00000000e+00       0.00000000e+00       0.00000000e+00 
       0.00000000e+00       0.00000000e+00       0.00000000e+00 
       0.00000000e+00       0.00000000e+00       0.00000000e+00 
       0.00000000e+00       0.00000000e+00       0.00000000e+00 
       4.54607103e-04       1.20671203e-06      -4.62290707e-05 
       4.54607103e-04       1.20671203e-06      -4.62290707e-05 
       4.54607103e-04       1.20671203e-06      -4.62290707e-05 
       4.54607103e-04       1.20671203e-06      -4.62290707e-05 
       2.27303552e-04       6.03356017e-07      -2.31145354e-05 
       2.27303552e-04       6.03356017e-07      -2.31145354e-05 
       2.27303552e-04       6.03356017e-07      -2.31145354e-05 
       2.27303552e-04       6.03356017e-07      -2.31145354e-05 
       0.00000000e+00       0.00000000e+00       0.00000000e+00 
       0.00000000e+00       0.00000000e+00       0.00000000e+00 
       0.00000000e+00       0.00000000e+00       0.00000000e+00 
       0.00000000e+00       0.00000000e+00       0.00000000e+00 
       4.54607352e-04      -1.22728785e-06      -4.62311637e-05 
       4.54607352e-04      -1.22728785e-06      -4.62311637e-05 
       4.54607352e-04      -1.22728785e-06      -4.62311637e-05 
       4.54607352e-04      -1.22728785e-06      -4.62311637e-05 
       0.00000000e+00       0.00000000e+00       0.00000000e+00 
       0.00000000e+00       0.00000000e+00       0.00000000e+00 
       0.00000000e+00       0.00000000e+00       0.00000000e+00 
       0.00000000e+00       0.00000000e+00       0.00000000e+00 
       4.54607352e-04      -1.22728785e-06      -4.62311637e-05 
       4.54607352e-04      -1.22728785e-06      -4.62311637e-05 
       4.54607352e-04      -1.22728785e-06      -4.62311637e-05 
       4.54607352e-04      -1.22728785e-06      -4.62311637e-05 
       2.27303676e-04      -6.13643925e-07      -2.31155819e-05 
       2.27303676e-04      -6.13643925e-07      -2.31155819e-05 
       2.27303676e-04      -6.13643925e-07      -2.31155819e-05 
       2.27303676e-04      -6.13643925e-07      -2.31155819e-05 
       0.00000000e+00       0.00000000e+00       0.00000000e+00 
       0.00000000e+00       0.00000000e+00       0.00000000e+00 
       0.00000000e+00       0.00000000e+00       0.00000000e+00 
       0.00000000e+00       0.00000000e+00       0.00000000e+00 
       4.65136407e-04      -1.04356586e-08       1.22891440e-06 
       4.65136407e-04      -1.04356586e-08       1.22891440e-06 
       4.65136407e-04      -1.04356586e-08       1.22891440e-06 
       4.65136407e-04      -1.04356586e-08       1.22891440e-06 
       0.00000000e+00       0.00000000e+00       0.00000000e+00 
       0.00000000e+00       0.00000000e+00       0.00000000e+00 
       0.00000000e+00       0.00000000e+00       0.00000000e+00 
       0.00000000e+00       0.00000000e+00       0.00000000e+00 
       4.65136407e-04      -1.04356586e-08       1.22891440e-06 
       4.65136407e-04      -1.04356586e-08       1.22891440e-06 
       4.65136407e-04      -1.04356586e-08       1.22891440e-06 
       4.65136407e-04      -1.04356586e-08       1.22891440e-06 
       2.32568204e-04      -5.21782928e-09       6.14457199e-07 
       2.32568204e-04      -5.21782928e-09       6.14457199e-07 
       2.32568204e-04      -5.21782928e-09       6.14457199e-07 
       2.32568204e-04      -5.21782928e-09       6.14457199e-07 
       0.00000000e+00       0.00000000e+00       0.00000000e+00 
       0.00000000e+00       0.00000000e+00       0.00000000e+00 
       0.00000000e+00       0.00000000e+00       0.00000000e+00 
       0.00000000e+00       0.00000000e+00       0.00000000e+00 
       4.54607103e-04       1.20671203e-06      -4.62290707e-05 
       4.54607103e-04       1.20671203e-06      -4.62290707e-05 
       4.54607103e-04       1.20671203e-06      -4.62290707e-05 
       4.54607103e-04       1.20671203e-06      -4.62290707e-05 
       0.00000000e+00       0.00000000e+00       0.00000000e+00 
       0.00000000e+00       0.00000000e+00       0.00000000e+00 
       0.00000000e+00       0.00000000e+00       0.00000000e+00 
       0.00000000e+00       0.00000000e+00       0.00000000e+00 
       4.54607103e-04       1.20671203e-06      -4.62290707e-05 
       4.54607103e-04       1.20671203e-06      -4.62290707e-05 
       4.54607103e-04       1.20671203e-06      -4.62290707e-05 
       4.54607103e-04       1.20671203e-06      -4.62290707e-05 
       2.27303552e-04       6.03356017e-07      -2.31145354e-05 
       2.27303552e-04       6.03356017e-07      -2.31145354e-05 
       2.27303552e-04       6.03356017e-07      -2.31145354e-05 
       2.27303552e-04       6.03356017e-07      -2.31145354e-05 
       0.00000000e+00       0.00000000e+00       0.00000000e+00 
       0.00000000e+00       0.00000000e+00       0.00000000e+00 
       0.00000000e+00       0.00000000e+00       0.00000000e+00 
       0.00000000e+00       0.00000000e+00       0.00000000e+00 
       5.82072644e-04       9.35345390e-06       6.42732943e-04 
       5.82072644e-04       9.35345390e-06       6.42732943e-04 
       5.82072644e-04       9.35345390e-06       6.42732943e-04 
       5.82072644e-04       9.35345390e-06       6.42732943e-04 
       0.00000000e+00       0.00000000e+00       0.00000000e+00 
       0.00000000e+00       0.00000000e+00       0.00000000e+00 
       0.00000000e+00       0.00000000e+00       0.00000000e+00 
       0.00000000e+00       0.00000000e+00       0.00000000e+00 
       5.82072644e-04       9.35345390e-06       6.42732943e-04 
       5.82072644e-04       9.35345390e-06       6.42732943e-04 
       5.82072644e-04       9.35345390e-06       6.42732943e-04 
       5.82072644e-04       9.35345390e-06       6.42732943e-04 
       2.91036322e-04       4.67672695e-06       3.21366472e-04 
       2.91036322e-04       4.67672695e-06       3.21366472e-04 
       2.91036322e-04       4.67672695e-06       3.21366472e-04 
       2.91036322e-04       4.67672695e-06       3.21366472e-04 
       0.00000000e+00       0.00000000e+00       0.00000000e+00 
       0.00000000e+00       0.00000000e+00       0.00000000e+00 
       0.00000000e+00       0.00000000e+00       0.00000000e+00 
       0.00000000e+00       0.00000000e+00       0.00000000e+00 
       6.05111270e-04      -3.15652099e-05      -9.93724458e-04 
       6.05111270e-04      -3.15652099e-05      -9.93724458e-04 
       6.05111270e-04      -3.15652099e-05      -9.93724458e-04 
       6.05111270e-04      -3.15652099e-05      -9.93724458e-04 
       0.00000000e+00       0.00000000e+00       0.00000000e+00 
       0.00000000e+00       0.00000000e+00       0.00000000e+00 
       0.00000000e+00       0.00000000e+00       0.00000000e+00 
       0.00000000e+00       0.00000000e+00       0.00000000e+00 
       6.05111270e-04      -3.15652099e-05      -9.93724458e-04 
       6.05111270e-04      -3.15652099e-05      -9.93724458e-04 
       6.05111270e-04      -3.15652099e-05      -9.93724458e-04 
       6.05111270e-04      -3.15652099e-05      -9.93724458e-04 
       3.02555635e-04      -1.57826049e-05      -4.96862229e-04 
       3.02555635e-04      -1.57826049e-05      -4.96862229e-04 
       3.02555635e-04      -1.57826049e-05      -4.96862229e-04 
       3.02555635e-04      -1.57826049e-05      -4.96862229e-04 
       0.00000000e+00       0.00000000e+00       0.00000000e+00 
       0.00000000e+00       0.00000000e+00       0.00000000e+00 
       0.00000000e+00       0.00000000e+00       0.00000000e+00 
       0.00000000e+00       0.00000000e+00       0.00000000e+00 
       6.05112799e-04       3.15375519e-05      -9.93751306e-04 
       6.05112799e-04       3.15375519e-05      -9.93751306e-04 
       6.05112799e-04       3.15375519e-05      -9.93751306e-04 
       6.05112799e-04       3.15375519e-05      -9.93751306e-04 
       0.00000000e+00       0.00000000e+00       0.00000000e+00 
       0.00000000e+00       0.00000000e+00       0.00000000e+00 
       0.00000000e+00       0.00000000e+00       0.00000000e+00 
       0.00000000e+00       0.00000000e+00       0.00000000e+00 
       6.05112799e-04       3.15375519e-05      -9.93751306e-04 
       6.05112799e-04       3.15375519e-05      -9.93751306e-04 
       6.05112799e-04       3.15375519e-05      -9.93751306e-04 
       6.05112799e-04       3.15375519e-05      -9.93751306e-04 
       3.02556400e-04       1.57687759e-05      -4.96875653e-04 
       3.02556400e-04       1.57687759e-05      -4.96875653e-04 
       3.02556400e-04       1.57687759e-05      -4.96875653e-04 
       3.02556400e-04       1.57687759e-05      -4.96875653e-04 
       0.00000000e+00       0.00000000e+00       0.00000000e+00 
       0.00000000e+00       0.00000000e+00       0.00000000e+00 
       0.00000000e+00       0.00000000e+00       0.00000000e+00 
       0.00000000e+00       0.00000000e+00       0.00000000e+00 
       5.82071729e-04      -9.38028319e-06       6.42706160e-04 
       5.82071729e-04      -9.38028319e-06       6.42706160e-04 
       5.82071729e-04      -9.38028319e-06       6.42706160e-04 
       5.82071729e-04      -9.38028319e-06       6.42706160e-04 
       0.00000000e+00       0.00000000e+00       0.00000000e+00 
       0.00000000e+00       0.00000000e+00       0.00000000e+00 
       0.00000000e+00       0.00000000e+00       0.00000000e+00 
       0.00000000e+00       0.00000000e+00       0.00000000e+00 
       5.82071729e-04      -9.38028319e-06       6.42706160e-04 
       5.82071729e-04      -9.38028319e-06       6.42706160e-04 
       5.82071729e-04      -9.38028319e-06       6.42706160e-04 
       5.82071729e-04      -9.38028319e-06       6.42706160e-04 
       2.91035864e-04      -4.69014160e-06       3.21353080e-04 
       2.91035864e-04      -4.69014160e-06       3.21353080e-04 
       2.91035864e-04      -4.69014160e-06       3.21353080e-04 
       2.91035864e-04      -4.69014160e-06       3.21353080e-04 
       4.67561466e-04      -1.01398416e-08      -9.36097328e-05 
       4.67561466e-04      -1.01398416e-08      -9.36097328e-05 
       4.67561466e-04      -1.01398416e-08      -9.36097328e-05 
       4.67561466e-04      -1.01398416e-08      -9.36097328e-05 
       5.82071729e-04      -9.38028319e-06       6.42706160e-04 
       5.82071729e-04      -9.38028319e-06       6.42706160e-04 
       5.82071729e-04      -9.38028319e-06       6.42706160e-04 
       5.82071729e-04      -9.38028319e-06       6.42706160e-04 
       4.67561466e-04      -1.01398416e-08      -9.36097328e-05 
       4.67561466e-04      -1.01398416e-08      -9.36097328e-05 
       4.67561466e-04      -1.01398416e-08      -9.36097328e-05 
       4.67561466e-04      -1.01398416e-08      -9.36097328e-05 
       5.82071729e-04      -9.38028319e-06       6.42706160e-04 
       5.82071729e-04      -9.38028319e-06       6.42706160e-04 
       5.82071729e-04      -9.38028319e-06       6.42706160e-04 
       5.82071729e-04      -9.38028319e-06       6.42706160e-04 
       5.24816597e-04      -4.69521152e-06       2.74548214e-04 
       5.24816597e-04      -4.69521152e-06       2.74548214e-04 
       5.24816597e-04      -4.69521152e-06       2.74548214e-04 
       5.24816597e-04      -4.69521152e-06       2.74548214e-04 
       4.67561466e-04      -1.01398416e-08      -9.36097328e-05 
       4.67561466e-04      -1.01398416e-08      -9.36097328e-05 
       4.67561466e-04      -1.01398416e-08      -9.36097328e-05 
       4.67561466e-04      -1.01398416e-08      -9.36097328e-05 
       5.82072644e-04       9.35345390e-06       6.42732943e-04 
       5.82072644e-04       9.35345390e-06       6.42732943e-04 
       5.82072644e-04       9.35345390e-06       6.42732943e-04 
       5.82072644e-04       9.35345390e-06       6.42732943e-04 
       4.67561466e-04      -1.01398416e-08      -9.36097328e-05 
       4.67561466e-04      -1.01398416e-08      -9.36097328e-05 
       4.67561466e-04      -1.01398416e-08      -9.36097328e-05 
       4.67561466e-04      -1.01398416e-08      -9.36097328e-05 
       5.82072644e-04       9.35345390e-06       6.42732943e-04 
       5.82072644e-04       9.35345390e-06       6.42732943e-04 
       5.82072644e-04       9.35345390e-06       6.42732943e-04 
       5.82072644e-04       9.35345390e-06       6.42732943e-04 
       5.24817055e-04       4.67165703e-06       2.74561605e-04 
       5.24817055e-04       4.67165703e-06       2.74561605e-04 
       5.24817055e-04       4.67165703e-06       2.74561605e-04 
       5.24817055e-04       4.67165703e-06       2.74561605e-04 
       4.65136407e-04      -1.04356586e-08       1.22891440e-06 
       4.65136407e-04      -1.04356586e-08       1.22891440e-06 
       4.65136407e-04      -1.04356586e-08       1.22891440e-06 
       4.65136407e-04      -1.04356586e-08       1.22891440e-06 
       6.05112799e-04       3.15375519e-05      -9.93751306e-04 
       6.05112799e-04       3.15375519e-05      -9.93751306e-04 
       6.05112799e-04       3.15375519e-05      -9.93751306e-04 
       6.05112799e-04       3.15375519e-05      -9.93751306e-04 
       4.65136407e-04      -1.04356586e-08       1.22891440e-06 
       4.65136407e-04      -1.04356586e-08       1.22891440e-06 
       4.65136407e-04      -1.04356586e-08       1.22891440e-06 
       4.65136407e-04      -1.04356586e-08       1.22891440e-06 
       6.05112799e-04       3.15375519e-05      -9.93751306e-04 
       6.05112799e-04       3.15375519e-05      -9.93751306e-04 
       6.05112799e-04       3.15375519e-05      -9.93751306e-04 
       6.05112799e-04       3.15375519e-05      -9.93751306e-04 
       5.35124603e-04       1.57635581e-05      -4.96261196e-04 
       5.35124603e-04       1.57635581e-05      -4.96261196e-04 
       5.35124603e-04       1.57635581e-05      -4.96261196e-04 
       5.35124603e-04       1.57635581e-05      -4.96261196e-04 
       4.65136407e-04      -1.04356586e-08       1.22891440e-06 
       4.65136407e-04      -1.04356586e-08       1.22891440e-06 
       4.65136407e-04      -1.04356586e-08       1.22891440e-06 
       4.65136407e-04      -1.04356586e-08       1.22891440e-06 
       4.54607103e-04       1.20671203e-06      -4.62290707e-05 
       4.54607103e-04       1.20671203e-06      -4.62290707e-05 