# vtk DataFile Version 2.0
./output/Static_Tower/Static_Tower_0007.vtk
ASCII
DATASET UNSTRUCTURED_GRID

POINTS 13260 float
      -4.335799e+00       4.312526e+00      -9.534166e-03 
      -4.309007e+00       4.315349e+00      -9.534166e-03 
      -4.311001e+00       4.334274e+00       9.534166e-03 
      -4.337793e+00       4.331451e+00       9.534166e-03 
      -3.880283e+00      -1.086321e-02       4.329072e+00 
      -3.853491e+00      -8.040445e-03       4.329072e+00 
      -3.855485e+00       1.088491e-02       4.348140e+00 
      -3.882277e+00       8.062150e-03       4.348140e+00 
      -4.321990e+00       4.310018e+00      -1.348335e-02 
      -4.304456e+00       4.325396e+00       0.000000e+00 
      -4.324810e+00       4.336782e+00       1.348335e-02 
      -4.342344e+00       4.321404e+00       0.000000e+00 
      -3.866474e+00      -1.337140e-02       4.325123e+00 
      -3.848940e+00       2.006848e-03       4.338606e+00 
      -3.869294e+00       1.339310e-02       4.352090e+00 
      -3.886828e+00      -1.985143e-03       4.338606e+00 
      -4.108041e+00       2.150831e+00       2.159769e+00 
      -4.081249e+00       2.153654e+00       2.159769e+00 
      -4.083243e+00       2.172579e+00       2.178837e+00 
      -4.110035e+00       2.169757e+00       2.178837e+00 
       4.309007e+00       4.315349e+00      -9.534166e-03 
       4.335799e+00       4.312526e+00      -9.534166e-03 
       4.337793e+00       4.331451e+00       9.534166e-03 
       4.311001e+00       4.334274e+00       9.534166e-03 
       3.853491e+00      -8.040444e-03       4.329072e+00 
       3.880282e+00      -1.086321e-02       4.329072e+00 
       3.882276e+00       8.062149e-03       4.348140e+00 
       3.855485e+00       1.088491e-02       4.348140e+00 
       4.321990e+00       4.310018e+00      -1.348335e-02 
       4.342344e+00       4.321404e+00       0.000000e+00 
       4.324810e+00       4.336782e+00       1.348335e-02 
       4.304456e+00       4.325396e+00       0.000000e+00 
       3.866474e+00      -1.337140e-02       4.325123e+00 
       3.886828e+00      -1.985144e-03       4.338606e+00 
       3.869294e+00       1.339310e-02       4.352090e+00 
       3.848939e+00       2.006849e-03       4.338606e+00 
       4.081249e+00       2.153654e+00       2.159769e+00 
       4.108041e+00       2.150831e+00       2.159769e+00 
       4.110035e+00       2.169757e+00       2.178837e+00 
       4.083243e+00       2.172579e+00       2.178837e+00 
      -4.309007e+00      -4.315349e+00      -9.534190e-03 
      -4.335799e+00      -4.312526e+00      -9.534190e-03 
      -4.337793e+00      -4.331451e+00       9.534190e-03 
      -4.311001e+00      -4.334274e+00       9.534190e-03 
      -3.853491e+00       8.062134e-03       4.329072e+00 
      -3.880283e+00       1.088488e-02       4.329072e+00 
      -3.882277e+00      -8.040429e-03       4.348140e+00 
      -3.855485e+00      -1.086318e-02       4.348140e+00 
      -4.321990e+00      -4.310018e+00      -1.348338e-02 
      -4.342344e+00      -4.321404e+00       0.000000e+00 
      -4.324810e+00      -4.336782e+00       1.348338e-02 
      -4.304456e+00      -4.325396e+00       0.000000e+00 
      -3.866474e+00       1.339307e-02       4.325123e+00 
      -3.886828e+00       2.006838e-03       4.338606e+00 
      -3.869294e+00      -1.337136e-02       4.352090e+00 
      -3.848940e+00      -1.985133e-03       4.338606e+00 
      -4.081249e+00      -2.153643e+00       2.159769e+00 
      -4.108041e+00      -2.150821e+00       2.159769e+00 
      -4.110035e+00      -2.169746e+00       2.178837e+00 
      -4.083243e+00      -2.172569e+00       2.178837e+00 
      -4.315349e+00       4.309007e+00      -9.534176e-03 
      -4.312526e+00       4.335799e+00      -9.534176e-03 
      -4.331451e+00       4.337793e+00       9.534176e-03 
      -4.334274e+00       4.311001e+00       9.534176e-03 
       8.051185e-03       3.853502e+00       4.329073e+00 
       1.087387e-02       3.880294e+00       4.329073e+00 
      -8.051472e-03       3.882288e+00       4.348142e+00 
      -1.087416e-02       3.855496e+00       4.348142e+00 
      -4.310018e+00       4.321990e+00      -1.348336e-02 
      -4.321404e+00       4.342344e+00       0.000000e+00 
      -4.336782e+00       4.324810e+00       1.348336e-02 
      -4.325396e+00       4.304456e+00       0.000000e+00 
       1.338210e-02       3.866485e+00       4.325124e+00 
       1.995799e-03       3.886839e+00       4.338607e+00 
      -1.338238e-02       3.869305e+00       4.352091e+00 
      -1.996087e-03       3.848951e+00       4.338607e+00 
      -2.153649e+00       4.081255e+00       2.159770e+00 
      -2.150826e+00       4.108046e+00       2.159770e+00 
      -2.169751e+00       4.110040e+00       2.178838e+00 
      -2.172574e+00       4.083249e+00       2.178838e+00 
      -4.312526e+00      -4.335799e+00      -9.534181e-03 
      -4.315349e+00      -4.309007e+00      -9.534181e-03 
      -4.334274e+00      -4.311001e+00       9.534181e-03 
      -4.331451e+00      -4.337793e+00       9.534181e-03 
       1.087393e-02      -3.880271e+00       4.329071e+00 
       8.051106e-03      -3.853480e+00       4.329071e+00 
      -1.087422e-02      -3.855474e+00       4.348139e+00 
      -8.051393e-03      -3.882265e+00       4.348139e+00 
      -4.310018e+00      -4.321990e+00      -1.348337e-02 
      -4.325396e+00      -4.304456e+00       0.000000e+00 
      -4.336782e+00      -4.324810e+00       1.348337e-02 
      -4.321404e+00      -4.342344e+00       0.000000e+00 
       1.338208e-02      -3.866463e+00       4.325122e+00 
      -1.996183e-03      -3.848928e+00       4.338605e+00 
      -1.338237e-02      -3.869283e+00       4.352088e+00 
       1.995896e-03      -3.886817e+00       4.338605e+00 
      -2.150826e+00      -4.108035e+00       2.159768e+00 
      -2.153649e+00      -4.081244e+00       2.159768e+00 
      -2.172574e+00      -4.083238e+00       2.178837e+00 
      -2.169751e+00      -4.110029e+00       2.178837e+00 
       4.312526e+00       4.335799e+00      -9.534176e-03 
       4.315349e+00       4.309007e+00      -9.534176e-03 
       4.334274e+00       4.311001e+00       9.534176e-03 
       4.331451e+00       4.337793e+00       9.534176e-03 
      -1.087416e-02       3.880294e+00       4.329073e+00 
      -8.051472e-03       3.853502e+00       4.329073e+00 
       1.087387e-02       3.855496e+00       4.348142e+00 
       8.051185e-03       3.882288e+00       4.348142e+00 
       4.310018e+00       4.321990e+00      -1.348336e-02 
       4.325396e+00       4.304456e+00       0.000000e+00 
       4.336782e+00       4.324810e+00       1.348336e-02 
       4.321404e+00       4.342344e+00       0.000000e+00 
      -1.338238e-02       3.866485e+00       4.325124e+00 
       1.995799e-03       3.848951e+00       4.338607e+00 
       1.338210e-02       3.869305e+00       4.352091e+00 
      -1.996086e-03       3.886839e+00       4.338607e+00 
       2.150826e+00       4.108046e+00       2.159770e+00 
       2.153649e+00       4.081255e+00       2.159770e+00 
       2.172574e+00       4.083249e+00       2.178838e+00 
       2.169751e+00       4.110040e+00       2.178838e+00 
       4.335799e+00      -4.312526e+00      -9.534190e-03 
       4.309007e+00      -4.315349e+00      -9.534190e-03 
       4.311001e+00      -4.334274e+00       9.534190e-03 
       4.337793e+00      -4.331451e+00       9.534190e-03 
       3.880282e+00       1.088488e-02       4.329072e+00 
       3.853491e+00       8.062133e-03       4.329072e+00 
       3.855485e+00      -1.086318e-02       4.348140e+00 
       3.882276e+00      -8.040428e-03       4.348140e+00 
       4.321990e+00      -4.310018e+00      -1.348338e-02 
       4.304456e+00      -4.325396e+00       0.000000e+00 
       4.324810e+00      -4.336782e+00       1.348338e-02 
       4.342344e+00      -4.321404e+00       0.000000e+00 
       3.866474e+00       1.339307e-02       4.325123e+00 
       3.848939e+00      -1.985134e-03       4.338606e+00 
       3.869294e+00      -1.337136e-02       4.352090e+00 
       3.886828e+00       2.006839e-03       4.338606e+00 
       4.108041e+00      -2.150821e+00       2.159769e+00 
       4.081249e+00      -2.153643e+00       2.159769e+00 
       4.083243e+00      -2.172569e+00       2.178837e+00 
       4.110035e+00      -2.169746e+00       2.178837e+00 
       4.315349e+00      -4.309007e+00      -9.534181e-03 
       4.312526e+00      -4.335799e+00      -9.534181e-03 
       4.331451e+00      -4.337793e+00       9.534181e-03 
       4.334274e+00      -4.311001e+00       9.534181e-03 
      -8.051393e-03      -3.853480e+00       4.329071e+00 
      -1.087422e-02      -3.880271e+00       4.329071e+00 
       8.051106e-03      -3.882265e+00       4.348139e+00 
       1.087393e-02      -3.855474e+00       4.348139e+00 
       4.310018e+00      -4.321990e+00      -1.348337e-02 
       4.321404e+00      -4.342344e+00       0.000000e+00 
       4.336782e+00      -4.324810e+00       1.348337e-02 
       4.325396e+00      -4.304456e+00       0.000000e+00 
      -1.338237e-02      -3.866463e+00       4.325122e+00 
      -1.996183e-03      -3.886817e+00       4.338605e+00 
       1.338208e-02      -3.869283e+00       4.352088e+00 
       1.995896e-03      -3.848928e+00       4.338605e+00 
       2.153649e+00      -4.081244e+00       2.159768e+00 
       2.150826e+00      -4.108035e+00       2.159768e+00 
       2.169751e+00      -4.110029e+00       2.178837e+00 
       2.172574e+00      -4.083238e+00       2.178837e+00 
      -4.290298e+00      -4.323580e+00      -3.457239e-03 
      -4.323581e+00      -4.290298e+00      -3.457239e-03 
      -4.356502e+00      -4.323220e+00       3.457239e-03 
      -4.323219e+00      -4.356502e+00       3.457239e-03 
      -3.834971e+00      -3.868239e+00       4.332429e+00 
      -3.868254e+00      -3.834957e+00       4.332429e+00 
      -3.901175e+00      -3.867879e+00       4.339344e+00 
[...]
POINT_DATA     13260 
VECTORS Displacements float
       0.00000000e+00       0.00000000e+00       0.00000000e+00 
       0.00000000e+00       0.00000000e+00       0.00000000e+00 
       0.00000000e+00       0.00000000e+00       0.00000000e+00 
       0.00000000e+00       0.00000000e+00       0.00000000e+00 
       1.60311702e-05       1.08524591e-05      -5.93741807e-04 
       1.60311702e-05       1.08524591e-05      -5.93741807e-04 
       1.60311702e-05       1.08524591e-05      -5.93741807e-04 
       1.60311702e-05       1.08524591e-05      -5.93741807e-04 
       0.00000000e+00       0.00000000e+00       0.00000000e+00 
       0.00000000e+00       0.00000000e+00       0.00000000e+00 
       0.00000000e+00       0.00000000e+00       0.00000000e+00 
       0.00000000e+00       0.00000000e+00       0.00000000e+00 
       1.60311702e-05       1.08524591e-05      -5.93741807e-04 
       1.60311702e-05       1.08524591e-05      -5.93741807e-04 
       1.60311702e-05       1.08524591e-05      -5.93741807e-04 
       1.60311702e-05       1.08524591e-05      -5.93741807e-04 
       8.01558509e-06       5.42622953e-06      -2.96870903e-04 
       8.01558509e-06       5.42622953e-06      -2.96870903e-04 
       8.01558509e-06       5.42622953e-06      -2.96870903e-04 
       8.01558509e-06       5.42622953e-06      -2.96870903e-04 
       0.00000000e+00       0.00000000e+00       0.00000000e+00 
       0.00000000e+00       0.00000000e+00       0.00000000e+00 
       0.00000000e+00       0.00000000e+00       0.00000000e+00 
       0.00000000e+00       0.00000000e+00       0.00000000e+00 
      -1.63184055e-05       1.08525744e-05      -5.93772052e-04 
      -1.63184055e-05       1.08525744e-05      -5.93772052e-04 
      -1.63184055e-05       1.08525744e-05      -5.93772052e-04 
      -1.63184055e-05       1.08525744e-05      -5.93772052e-04 
       0.00000000e+00       0.00000000e+00       0.00000000e+00 
       0.00000000e+00       0.00000000e+00       0.00000000e+00 
       0.00000000e+00       0.00000000e+00       0.00000000e+00 
       0.00000000e+00       0.00000000e+00       0.00000000e+00 
      -1.63184055e-05       1.08525744e-05      -5.93772052e-04 
      -1.63184055e-05       1.08525744e-05      -5.93772052e-04 
      -1.63184055e-05       1.08525744e-05      -5.93772052e-04 
      -1.63184055e-05       1.08525744e-05      -5.93772052e-04 
      -8.15920277e-06       5.42628718e-06      -2.96886026e-04 
      -8.15920277e-06       5.42628718e-06      -2.96886026e-04 
      -8.15920277e-06       5.42628718e-06      -2.96886026e-04 
      -8.15920277e-06       5.42628718e-06      -2.96886026e-04 
       0.00000000e+00       0.00000000e+00       0.00000000e+00 
       0.00000000e+00       0.00000000e+00       0.00000000e+00 
       0.00000000e+00       0.00000000e+00       0.00000000e+00 
       0.00000000e+00       0.00000000e+00       0.00000000e+00 
       1.60311702e-05       1.08524591e-05      -5.93741807e-04 
       1.60311702e-05       1.08524591e-05      -5.93741807e-04 
       1.60311702e-05       1.08524591e-05      -5.93741807e-04 
       1.60311702e-05       1.08524591e-05      -5.93741807e-04 
       0.00000000e+00       0.00000000e+00       0.00000000e+00 
       0.00000000e+00       0.00000000e+00       0.00000000e+00 
       0.00000000e+00       0.00000000e+00       0.00000000e+00 
       0.00000000e+00       0.00000000e+00       0.00000000e+00 
       1.60311702e-05       1.08524591e-05      -5.93741807e-04 
       1.60311702e-05       1.08524591e-05      -5.93741807e-04 
       1.60311702e-05       1.08524591e-05      -5.93741807e-04 
       1.60311702e-05       1.08524591e-05      -5.93741807e-04 
       8.01558509e-06       5.42622953e-06      -2.96870903e-04 
       8.01558509e-06       5.42622953e-06      -2.96870903e-04 
       8.01558509e-06       5.42622953e-06      -2.96870903e-04 
       8.01558509e-06       5.42622953e-06      -2.96870903e-04 
       0.00000000e+00       0.00000000e+00       0.00000000e+00 
       0.00000000e+00       0.00000000e+00       0.00000000e+00 
       0.00000000e+00       0.00000000e+00       0.00000000e+00 
       0.00000000e+00       0.00000000e+00       0.00000000e+00 
      -1.43654465e-07      -5.00101565e-06      -5.92588125e-04 
      -1.43654465e-07      -5.00101565e-06      -5.92588125e-04 
      -1.43654465e-07      -5.00101565e-06      -5.92588125e-04 
      -1.43654465e-07      -5.00101565e-06      -5.92588125e-04 
       0.00000000e+00       0.00000000e+00       0.00000000e+00 
       0.00000000e+00       0.00000000e+00       0.00000000e+00 
       0.00000000e+00       0.00000000e+00       0.00000000e+00 
       0.00000000e+00       0.00000000e+00       0.00000000e+00 
      -1.43654465e-07      -5.00101565e-06      -5.92588125e-04 
      -1.43654465e-07      -5.00101565e-06      -5.92588125e-04 
      -1.43654465e-07      -5.00101565e-06      -5.92588125e-04 
      -1.43654465e-07      -5.00101565e-06      -5.92588125e-04 
      -7.18272327e-08      -2.50050782e-06      -2.96294062e-04 
      -7.18272327e-08      -2.50050782e-06      -2.96294062e-04 
      -7.18272327e-08      -2.50050782e-06      -2.96294062e-04 
      -7.18272327e-08      -2.50050782e-06      -2.96294062e-04 
       0.00000000e+00       0.00000000e+00       0.00000000e+00 
       0.00000000e+00       0.00000000e+00       0.00000000e+00 
       0.00000000e+00       0.00000000e+00       0.00000000e+00 
       0.00000000e+00       0.00000000e+00       0.00000000e+00 
      -1.43528632e-07       2.73485199e-05      -5.94925128e-04 
      -1.43528632e-07       2.73485199e-05      -5.94925128e-04 
      -1.43528632e-07       2.73485199e-05      -5.94925128e-04 
      -1.43528632e-07       2.73485199e-05      -5.94925128e-04 
       0.00000000e+00       0.00000000e+00       0.00000000e+00 
       0.00000000e+00       0.00000000e+00       0.00000000e+00 
       0.00000000e+00       0.00000000e+00       0.00000000e+00 
       0.00000000e+00       0.00000000e+00       0.00000000e+00 
      -1.43528632e-07       2.73485199e-05      -5.94925128e-04 
      -1.43528632e-07       2.73485199e-05      -5.94925128e-04 
      -1.43528632e-07       2.73485199e-05      -5.94925128e-04 
      -1.43528632e-07       2.73485199e-05      -5.94925128e-04 
      -7.17643158e-08       1.36742600e-05      -2.97462564e-04 
      -7.17643158e-08       1.36742600e-05      -2.97462564e-04 
      -7.17643158e-08       1.36742600e-05      -2.97462564e-04 
      -7.17643158e-08       1.36742600e-05      -2.97462564e-04 
       0.00000000e+00       0.00000000e+00       0.00000000e+00 
       0.00000000e+00       0.00000000e+00       0.00000000e+00 
       0.00000000e+00       0.00000000e+00       0.00000000e+00 
       0.00000000e+00       0.00000000e+00       0.00000000e+00 
      -1.43654465e-07      -5.00101565e-06      -5.92588125e-04 
      -1.43654465e-07      -5.00101565e-06      -5.92588125e-04 
      -1.43654465e-07      -5.00101565e-06      -5.92588125e-04 
      -1.43654465e-07      -5.00101565e-06      -5.92588125e-04 
       0.00000000e+00       0.00000000e+00       0.00000000e+00 
       0.00000000e+00       0.00000000e+00       0.00000000e+00 
       0.00000000e+00       0.00000000e+00       0.00000000e+00 
       0.00000000e+00       0.00000000e+00       0.00000000e+00 
      -1.43654465e-07      -5.00101565e-06      -5.92588125e-04 
      -1.43654465e-07      -5.00101565e-06      -5.92588125e-04 
      -1.43654465e-07      -5.00101565e-06      -5.92588125e-04 
      -1.43654465e-07      -5.00101565e-06      -5.92588125e-04 
      -7.18272327e-08      -2.50050782e-06      -2.96294062e-04 
      -7.18272327e-08      -2.50050782e-06      -2.96294062e-04 
      -7.18272327e-08      -2.50050782e-06      -2.96294062e-04 
      -7.18272327e-08      -2.50050782e-06      -2.96294062e-04 
       0.00000000e+00       0.00000000e+00       0.00000000e+00 
       0.00000000e+00       0.00000000e+00       0.00000000e+00 
       0.00000000e+00       0.00000000e+00       0.00000000e+00 
       0.00000000e+00       0.00000000e+00       0.00000000e+00 
      -1.63184055e-05       1.08525744e-05      -5.93772052e-04 
      -1.63184055e-05       1.08525744e-05      -5.93772052e-04 
      -1.63184055e-05       1.08525744e-05      -5.93772052e-04 
      -1.63184055e-05       1.08525744e-05      -5.93772052e-04 
       0.00000000e+00       0.00000000e+00       0.00000000e+00 
       0.00000000e+00       0.00000000e+00       0.00000000e+00 
       0.00000000e+00       0.00000000e+00       0.00000000e+00 
       0.00000000e+00       0.00000000e+00       0.00000000e+00 
      -1.63184055e-05       1.08525744e-05      -5.93772052e-04 
      -1.63184055e-05       1.08525744e-05      -5.93772052e-04 
      -1.63184055e-05       1.08525744e-05      -5.93772052e-04 
      -1.63184055e-05       1.08525744e-05      -5.93772052e-04 
      -8.15920277e-06       5.42628718e-06      -2.96886026e-04 
      -8.15920277e-06       5.42628718e-06      -2.96886026e-04 
      -8.15920277e-06       5.42628718e-06      -2.96886026e-04 
      -8.15920277e-06       5.42628718e-06      -2.96886026e-04 
       0.00000000e+00       0.00000000e+00       0.00000000e+00 
       0.00000000e+00       0.00000000e+00       0.00000000e+00 
       0.00000000e+00       0.00000000e+00       0.00000000e+00 
       0.00000000e+00       0.00000000e+00       0.00000000e+00 
      -1.43528632e-07       2.73485199e-05      -5.94925128e-04 
      -1.43528632e-07       2.73485199e-05      -5.94925128e-04 
      -1.43528632e-07       2.73485199e-05      -5.94925128e-04 
      -1.43528632e-07       2.73485199e-05      -5.94925128e-04 
       0.00000000e+00       0.00000000e+00       0.00000000e+00 
       0.00000000e+00       0.00000000e+00       0.00000000e+00 
       0.00000000e+00       0.00000000e+00       0.00000000e+00 
       0.00000000e+00       0.00000000e+00       0.00000000e+00 
      -1.43528632e-07       2.73485199e-05      -5.94925128e-04 
      -1.43528632e-07       2.73485199e-05      -5.94925128e-04 
      -1.43528632e-07       2.73485199e-05      -5.94925128e-04 
      -1.43528632e-07       2.73485199e-05      -5.94925128e-04 
      -7.17643158e-08       1.36742600e-05      -2.97462564e-04 
      -7.17643158e-08       1.36742600e-05      -2.97462564e-04 
      -7.17643158e-08       1.36742600e-05      -2.97462564e-04 
      -7.17643158e-08       1.36742600e-05      -2.97462564e-04 
       0.00000000e+00       0.00000000e+00       0.00000000e+00 
       0.00000000e+00       0.00000000e+00       0.00000000e+00 
       0.00000000e+00       0.00000000e+00       0.00000000e+00 
       0.00000000e+00       0.00000000e+00       0.00000000e+00 
      -1.72903156e-04      -1.59303938e-04      -3.31369949e-03 
      -1.72903156e-04      -1.59303938e-04      -3.31369949e-03 
      -1.72903156e-04      -1.59303938e-04      -3.31369949e-03 
      -1.72903156e-04      -1.59303938e-04      -3.31369949e-03 
       0.00000000e+00       0.00000000e+00       0.00000000e+00 
       0.00000000e+00       0.00000000e+00       0.00000000e+00 
       0.00000000e+00       0.00000000e+00       0.00000000e+00 
       0.00000000e+00       0.00000000e+00       0.00000000e+00 
      -1.72903156e-04      -1.59303938e-04      -3.31369949e-03 
      -1.72903156e-04      -1.59303938e-04      -3.31369949e-03 
      -1.72903156e-04      -1.59303938e-04      -3.31369949e-03 
      -1.72903156e-04      -1.59303938e-04      -3.31369949e-03 
      -8.64515781e-05      -7.96519692e-05      -1.65684974e-03 
      -8.64515781e-05      -7.96519692e-05      -1.65684974e-03 
      -8.64515781e-05      -7.96519692e-05      -1.65684974e-03 
      -8.64515781e-05      -7.96519692e-05      -1.65684974e-03 
       0.00000000e+00       0.00000000e+00       0.00000000e+00 
       0.00000000e+00       0.00000000e+00       0.00000000e+00 
       0.00000000e+00       0.00000000e+00       0.00000000e+00 
       0.00000000e+00       0.00000000e+00       0.00000000e+00 
       1.72526305e-04      -1.59319445e-04      -3.31405833e-03 
       1.72526305e-04      -1.59319445e-04      -3.31405833e-03 
       1.72526305e-04      -1.59319445e-04      -3.31405833e-03 
       1.72526305e-04      -1.59319445e-04      -3.31405833e-03 
       0.00000000e+00       0.00000000e+00       0.00000000e+00 
       0.00000000e+00       0.00000000e+00       0.00000000e+00 
       0.00000000e+00       0.00000000e+00       0.00000000e+00 
       0.00000000e+00       0.00000000e+00       0.00000000e+00 
       1.72526305e-04      -1.59319445e-04      -3.31405833e-03 
       1.72526305e-04      -1.59319445e-04      -3.31405833e-03 
       1.72526305e-04      -1.59319445e-04      -3.31405833e-03 
       1.72526305e-04      -1.59319445e-04      -3.31405833e-03 
       8.62631525e-05      -7.96597227e-05      -1.65702917e-03 
       8.62631525e-05      -7.96597227e-05      -1.65702917e-03 
       8.62631525e-05      -7.96597227e-05      -1.65702917e-03 
       8.62631525e-05      -7.96597227e-05      -1.65702917e-03 
       0.00000000e+00       0.00000000e+00       0.00000000e+00 
       0.00000000e+00       0.00000000e+00       0.00000000e+00 
       0.00000000e+00       0.00000000e+00       0.00000000e+00 
       0.00000000e+00       0.00000000e+00       0.00000000e+00 
       1.73470818e-04       1.87308164e-04      -3.36358489e-03 
       1.73470818e-04       1.87308164e-04      -3.36358489e-03 
       1.73470818e-04       1.87308164e-04      -3.36358489e-03 
       1.73470818e-04       1.87308164e-04      -3.36358489e-03 
       0.00000000e+00       0.00000000e+00       0.00000000e+00 
       0.00000000e+00       0.00000000e+00       0.00000000e+00 
       0.00000000e+00       0.00000000e+00       0.00000000e+00 
       0.00000000e+00       0.00000000e+00       0.00000000e+00 
       1.73470818e-04       1.87308164e-04      -3.36358489e-03 
       1.73470818e-04       1.87308164e-04      -3.36358489e-03 
       1.73470818e-04       1.87308164e-04      -3.36358489e-03 
       1.73470818e-04       1.87308164e-04      -3.36358489e-03 
       8.67354092e-05       9.36540820e-05      -1.68179245e-03 
       8.67354092e-05       9.36540820e-05      -1.68179245e-03 
       8.67354092e-05       9.36540820e-05      -1.68179245e-03 
       8.67354092e-05       9.36540820e-05      -1.68179245e-03 
       0.00000000e+00       0.00000000e+00       0.00000000e+00 
       0.00000000e+00       0.00000000e+00       0.00000000e+00 
       0.00000000e+00       0.00000000e+00       0.00000000e+00 
       0.00000000e+00       0.00000000e+00       0.00000000e+00 
      -1.73848012e-04       1.87292366e-04      -3.36322604e-03 
      -1.73848012e-04       1.87292366e-04      -3.36322604e-03 
      -1.73848012e-04       1.87292366e-04      -3.36322604e-03 
      -1.73848012e-04       1.87292366e-04      -3.36322604e-03 
       0.00000000e+00       0.00000000e+00       0.00000000e+00 
       0.00000000e+00       0.00000000e+00       0.00000000e+00 
       0.00000000e+00       0.00000000e+00       0.00000000e+00 
       0.00000000e+00       0.00000000e+00       0.00000000e+00 
      -1.73848012e-04       1.87292366e-04      -3.36322604e-03 
      -1.73848012e-04       1.87292366e-04      -3.36322604e-03 
      -1.73848012e-04       1.87292366e-04      -3.36322604e-03 
      -1.73848012e-04       1.87292366e-04      -3.36322604e-03 
      -8.69240061e-05       9.36461830e-05      -1.68161302e-03 
      -8.69240061e-05       9.36461830e-05      -1.68161302e-03 
      -8.69240061e-05       9.36461830e-05      -1.68161302e-03 
      -8.69240061e-05       9.36461830e-05      -1.68161302e-03 
       1.60311702e-05       1.08524591e-05      -5.93741807e-04 
       1.60311702e-05       1.08524591e-05      -5.93741807e-04 
       1.60311702e-05       1.08524591e-05      -5.93741807e-04 
       1.60311702e-05       1.08524591e-05      -5.93741807e-04 
      -1.73848012e-04       1.87292366e-04      -3.36322604e-03 
      -1.73848012e-04       1.87292366e-04      -3.36322604e-03 
      -1.73848012e-04       1.87292366e-04      -3.36322604e-03 
      -1.73848012e-04       1.87292366e-04      -3.36322604e-03 
       1.60311702e-05       1.08524591e-05      -5.93741807e-04 
       1.60311702e-05       1.08524591e-05      -5.93741807e-04 
       1.60311702e-05       1.08524591e-05      -5.93741807e-04 
       1.60311702e-05       1.08524591e-05      -5.93741807e-04 
      -1.73848012e-04       1.87292366e-04      -3.36322604e-03 
      -1.73848012e-04       1.87292366e-04      -3.36322604e-03 
      -1.73848012e-04       1.87292366e-04      -3.36322604e-03 
      -1.73848012e-04       1.87292366e-04      -3.36322604e-03 
      -7.89084210e-05       9.90724125e-05      -1.97848392e-03 
      -7.89084210e-05       9.90724125e-05      -1.97848392e-03 
      -7.89084210e-05       9.90724125e-05      -1.97848392e-03 
      -7.89084210e-05       9.90724125e-05      -1.97848392e-03 
       1.60311702e-05       1.08524591e-05      -5.93741807e-04 
       1.60311702e-05       1.08524591e-05      -5.93741807e-04 
       1.60311702e-05       1.08524591e-05      -5.93741807e-04 
       1.60311702e-05       1.08524591e-05      -5.93741807e-04 
      -1.72903156e-04      -1.59303938e-04      -3.31369949e-03 
      -1.72903156e-04      -1.59303938e-04      -3.31369949e-03 
      -1.72903156e-04      -1.59303938e-04      -3.31369949e-03 
      -1.72903156e-04      -1.59303938e-04      -3.31369949e-03 
       1.60311702e-05       1.08524591e-05      -5.93741807e-04 
       1.60311702e-05       1.08524591e-05      -5.93741807e-04 
       1.60311702e-05       1.08524591e-05      -5.93741807e-04 
       1.60311702e-05       1.08524591e-05      -5.93741807e-04 
      -1.72903156e-04      -1.59303938e-04      -3.31369949e-03 
      -1.72903156e-04      -1.59303938e-04      -3.31369949e-03 
      -1.72903156e-04      -1.59303938e-04      -3.31369949e-03 
      -1.72903156e-04      -1.59303938e-04      -3.31369949e-03 
      -7.84359931e-05      -7.42257396e-05      -1.95372065e-03 
      -7.84359931e-05      -7.42257396e-05      -1.95372065e-03 
      -7.84359931e-05      -7.42257396e-05      -1.95372065e-03 
      -7.84359931e-05      -7.42257396e-05      -1.95372065e-03 
      -1.63184055e-05       1.08525744e-05      -5.93772052e-04 
      -1.63184055e-05       1.08525744e-05      -5.93772052e-04 
      -1.63184055e-05       1.08525744e-05      -5.93772052e-04 
      -1.63184055e-05       1.08525744e-05      -5.93772052e-04 
       1.73470818e-04       1.87308164e-04      -3.36358489e-03 
       1.73470818e-04       1.87308164e-04      -3.36358489e-03 
       1.73470818e-04       1.87308164e-04      -3.36358489e-03 
       1.73470818e-04       1.87308164e-04      -3.36358489e-03 
      -1.63184055e-05       1.08525744e-05      -5.93772052e-04 
      -1.63184055e-05       1.08525744e-05      -5.93772052e-04 
      -1.63184055e-05       1.08525744e-05      -5.93772052e-04 
      -1.63184055e-05       1.08525744e-05      -5.93772052e-04 
       1.73470818e-04       1.87308164e-04      -3.36358489e-03 
       1.73470818e-04       1.87308164e-04      -3.36358489e-03 
       1.73470818e-04       1.87308164e-04      -3.36358489e-03 
       1.73470818e-04       1.87308164e-04      -3.36358489e-03 
       7.85762064e-05       9.90803691e-05      -1.97867847e-03 
       7.85762064e-05       9.90803691e-05      -1.97867847e-03 
       7.85762064e-05       9.90803691e-05      -1.97867847e-03 
       7.85762064e-05       9.90803691e-05      -1.97867847e-03 
      -1.63184055e-05       1.08525744e-05      -5.93772052e-04 
      -1.63184055e-05       1.08525744e-05      -5.93772052e-04 
      -1.63184055e-05       1.08525744e-05      -5.93772052e-04 
      -1.63184055e-05       1.08525744e-05      -5.93772052e-04 
      -1.43528632e-07       2.73485199e-05      -5.94925128e-04 
      -1.43528632e-07       2.73485199e-05      -5.94925128e-04 