# vtk DataFile Version 2.0
./output/Static_Tower/Static_Tower_0006.vtk
ASCII
DATASET UNSTRUCTURED_GRID

POINTS 13260 float
      -4.335797e+00       4.312524e+00      -9.533691e-03 
      -4.309006e+00       4.315350e+00      -9.533691e-03 
      -4.311003e+00       4.334276e+00       9.533691e-03 
      -4.337794e+00       4.331450e+00       9.533691e-03 
      -3.879786e+00      -1.087595e-02       4.329569e+00 
      -3.852995e+00      -8.050153e-03       4.329569e+00 
      -3.854991e+00       1.087593e-02       4.348636e+00 
      -3.881782e+00       8.050135e-03       4.348636e+00 
      -4.321988e+00       4.310017e+00      -1.348267e-02 
      -4.304456e+00       4.325398e+00       0.000000e+00 
      -4.324812e+00       4.336783e+00       1.348267e-02 
      -4.342344e+00       4.321402e+00       0.000000e+00 
      -3.865977e+00      -1.338277e-02       4.325620e+00 
      -3.848444e+00       1.998129e-03       4.339103e+00 
      -3.868800e+00       1.338275e-02       4.352585e+00 
      -3.886333e+00      -1.998146e-03       4.339103e+00 
      -4.107792e+00       2.150824e+00       2.160018e+00 
      -4.081001e+00       2.153650e+00       2.160018e+00 
      -4.082997e+00       2.172576e+00       2.179085e+00 
      -4.109788e+00       2.169750e+00       2.179085e+00 
       4.309008e+00       4.315346e+00      -9.533456e-03 
       4.335800e+00       4.312527e+00      -9.533456e-03 
       4.337792e+00       4.331454e+00       9.533456e-03 
       4.311000e+00       4.334273e+00       9.533456e-03 
       3.854017e+00      -8.053747e-03       4.329676e+00 
       3.880809e+00      -1.087329e-02       4.329676e+00 
       3.882801e+00       8.053729e-03       4.348743e+00 
       3.856009e+00       1.087327e-02       4.348743e+00 
       4.321992e+00       4.310017e+00      -1.348234e-02 
       4.342345e+00       4.321406e+00       0.000000e+00 
       4.324808e+00       4.336783e+00       1.348234e-02 
       4.304455e+00       4.325394e+00       0.000000e+00 
       3.867001e+00      -1.338343e-02       4.325727e+00 
       3.887354e+00      -1.993724e-03       4.339210e+00 
       3.869818e+00       1.338341e-02       4.352692e+00 
       3.849464e+00       1.993706e-03       4.339210e+00 
       4.081513e+00       2.153646e+00       2.160071e+00 
       4.108304e+00       2.150827e+00       2.160071e+00 
       4.110296e+00       2.169754e+00       2.179138e+00 
       4.083505e+00       2.172573e+00       2.179138e+00 
      -4.309006e+00      -4.315350e+00      -9.533691e-03 
      -4.335797e+00      -4.312524e+00      -9.533691e-03 
      -4.337794e+00      -4.331450e+00       9.533691e-03 
      -4.311003e+00      -4.334276e+00       9.533691e-03 
      -3.852995e+00       8.050135e-03       4.329569e+00 
      -3.879786e+00       1.087593e-02       4.329569e+00 
      -3.881782e+00      -8.050153e-03       4.348636e+00 
      -3.854991e+00      -1.087595e-02       4.348636e+00 
      -4.321988e+00      -4.310017e+00      -1.348267e-02 
      -4.342344e+00      -4.321402e+00       0.000000e+00 
      -4.324812e+00      -4.336783e+00       1.348267e-02 
      -4.304456e+00      -4.325398e+00       0.000000e+00 
      -3.865977e+00       1.338275e-02       4.325620e+00 
      -3.886333e+00       1.998129e-03       4.339103e+00 
      -3.868800e+00      -1.338277e-02       4.352585e+00 
      -3.848444e+00      -1.998146e-03       4.339103e+00 
      -4.081001e+00      -2.153650e+00       2.160018e+00 
      -4.107792e+00      -2.150824e+00       2.160018e+00 
      -4.109788e+00      -2.169750e+00       2.179085e+00 
      -4.082997e+00      -2.172576e+00       2.179085e+00 
      -4.315348e+00       4.309007e+00      -9.534114e-03 
      -4.312526e+00       4.335799e+00      -9.534114e-03 
      -4.331452e+00       4.337793e+00       9.534114e-03 
      -4.334274e+00       4.311001e+00       9.534114e-03 
       8.548104e-03       3.853506e+00       4.329622e+00 
       1.137045e-02       3.880298e+00       4.329622e+00 
      -7.555045e-03       3.882291e+00       4.348690e+00 
      -1.037739e-02       3.855500e+00       4.348690e+00 
      -4.310018e+00       4.321990e+00      -1.348327e-02 
      -4.321404e+00       4.342344e+00       0.000000e+00 
      -4.336782e+00       4.324810e+00       1.348327e-02 
      -4.325396e+00       4.304456e+00       0.000000e+00 
       1.387888e-02       3.866489e+00       4.325673e+00 
       2.492229e-03       3.886843e+00       4.339156e+00 
      -1.288582e-02       3.869309e+00       4.352639e+00 
      -1.499170e-03       3.848954e+00       4.339156e+00 
      -2.153400e+00       4.081257e+00       2.160044e+00 
      -2.150578e+00       4.108048e+00       2.160044e+00 
      -2.169503e+00       4.110042e+00       2.179112e+00 
      -2.172326e+00       4.083251e+00       2.179112e+00 
      -4.312526e+00      -4.335799e+00      -9.534114e-03 
      -4.315348e+00      -4.309007e+00      -9.534114e-03 
      -4.334274e+00      -4.311001e+00       9.534114e-03 
      -4.331452e+00      -4.337793e+00       9.534114e-03 
       1.137045e-02      -3.880298e+00       4.329622e+00 
       8.548104e-03      -3.853506e+00       4.329622e+00 
      -1.037739e-02      -3.855500e+00       4.348690e+00 
      -7.555046e-03      -3.882291e+00       4.348690e+00 
      -4.310018e+00      -4.321990e+00      -1.348327e-02 
      -4.325396e+00      -4.304456e+00       0.000000e+00 
      -4.336782e+00      -4.324810e+00       1.348327e-02 
      -4.321404e+00      -4.342344e+00       0.000000e+00 
       1.387887e-02      -3.866489e+00       4.325673e+00 
      -1.499170e-03      -3.848954e+00       4.339156e+00 
      -1.288582e-02      -3.869309e+00       4.352639e+00 
       2.492229e-03      -3.886843e+00       4.339156e+00 
      -2.150578e+00      -4.108048e+00       2.160044e+00 
      -2.153400e+00      -4.081257e+00       2.160044e+00 
      -2.172326e+00      -4.083251e+00       2.179112e+00 
      -2.169503e+00      -4.110042e+00       2.179112e+00 
       4.312525e+00       4.335798e+00      -9.533033e-03 
       4.315348e+00       4.309007e+00      -9.533033e-03 
       4.334275e+00       4.311002e+00       9.533033e-03 
       4.331452e+00       4.337793e+00       9.533033e-03 
      -1.037876e-02       3.880297e+00       4.329623e+00 
      -7.555778e-03       3.853506e+00       4.329623e+00 
       1.137182e-02       3.855500e+00       4.348689e+00 
       8.548837e-03       3.882292e+00       4.348689e+00 
       4.310016e+00       4.321990e+00      -1.348174e-02 
       4.325396e+00       4.304456e+00       0.000000e+00 
       4.336784e+00       4.324810e+00       1.348174e-02 
       4.321404e+00       4.342344e+00       0.000000e+00 
      -1.288731e-02       3.866489e+00       4.325674e+00 
       2.492683e-03       3.848954e+00       4.339156e+00 
       1.388036e-02       3.869309e+00       4.352638e+00 
      -1.499624e-03       3.886843e+00       4.339156e+00 
       2.151073e+00       4.108048e+00       2.160045e+00 
       2.153896e+00       4.081257e+00       2.160045e+00 
       2.172824e+00       4.083251e+00       2.179111e+00 
       2.170001e+00       4.110042e+00       2.179111e+00 
       4.335800e+00      -4.312527e+00      -9.533456e-03 
       4.309008e+00      -4.315346e+00      -9.533456e-03 
       4.311000e+00      -4.334273e+00       9.533456e-03 
       4.337792e+00      -4.331454e+00       9.533456e-03 
       3.880809e+00       1.087327e-02       4.329676e+00 
       3.854017e+00       8.053729e-03       4.329676e+00 
       3.856009e+00      -1.087329e-02       4.348743e+00 
       3.882801e+00      -8.053747e-03       4.348743e+00 
       4.321992e+00      -4.310017e+00      -1.348234e-02 
       4.304455e+00      -4.325394e+00       0.000000e+00 
       4.324808e+00      -4.336783e+00       1.348234e-02 
       4.342345e+00      -4.321406e+00       0.000000e+00 
       3.867001e+00       1.338341e-02       4.325727e+00 
       3.849464e+00      -1.993724e-03       4.339210e+00 
       3.869818e+00      -1.338343e-02       4.352692e+00 
       3.887354e+00       1.993706e-03       4.339210e+00 
       4.108304e+00      -2.150827e+00       2.160071e+00 
       4.081513e+00      -2.153646e+00       2.160071e+00 
       4.083505e+00      -2.172573e+00       2.179138e+00 
       4.110296e+00      -2.169754e+00       2.179138e+00 
       4.315348e+00      -4.309007e+00      -9.533033e-03 
       4.312525e+00      -4.335798e+00      -9.533033e-03 
       4.331452e+00      -4.337793e+00       9.533033e-03 
       4.334275e+00      -4.311002e+00       9.533033e-03 
      -7.555778e-03      -3.853506e+00       4.329623e+00 
      -1.037876e-02      -3.880297e+00       4.329623e+00 
       8.548836e-03      -3.882292e+00       4.348689e+00 
       1.137182e-02      -3.855500e+00       4.348689e+00 
       4.310016e+00      -4.321990e+00      -1.348174e-02 
       4.321404e+00      -4.342344e+00       0.000000e+00 
       4.336784e+00      -4.324810e+00       1.348174e-02 
       4.325396e+00      -4.304456e+00       0.000000e+00 
      -1.288731e-02      -3.866489e+00       4.325674e+00 
      -1.499624e-03      -3.886843e+00       4.339156e+00 
       1.388036e-02      -3.869309e+00       4.352638e+00 
       2.492682e-03      -3.848954e+00       4.339156e+00 
       2.153896e+00      -4.081257e+00       2.160045e+00 
       2.151073e+00      -4.108048e+00       2.160045e+00 
       2.170001e+00      -4.110042e+00       2.179111e+00 
       2.172824e+00      -4.083251e+00       2.179111e+00 
      -4.290298e+00      -4.323603e+00      -3.457634e-03 
      -4.323558e+00      -4.290298e+00      -3.457634e-03 
      -4.356502e+00      -4.323197e+00       3.457634e-03 
      -4.323242e+00      -4.356502e+00       3.457634e-03 
      -3.834167e+00      -3.868086e+00       4.336589e+00 
      -3.867427e+00      -3.834781e+00       4.336589e+00 
      -3.900370e+00      -3.867680e+00       4.343505e+00 
[...]
POINT_DATA     13260 
VECTORS Displacements float
       0.00000000e+00       0.00000000e+00       0.00000000e+00 
       0.00000000e+00       0.00000000e+00       0.00000000e+00 
       0.00000000e+00       0.00000000e+00       0.00000000e+00 
       0.00000000e+00       0.00000000e+00       0.00000000e+00 
       5.11435136e-04      -8.76684834e-09      -9.73941507e-05 
       5.11435136e-04      -8.76684834e-09      -9.73941507e-05 
       5.11435136e-04      -8.76684834e-09      -9.73941507e-05 
       5.11435136e-04      -8.76684834e-09      -9.73941507e-05 
       0.00000000e+00       0.00000000e+00       0.00000000e+00 
       0.00000000e+00       0.00000000e+00       0.00000000e+00 
       0.00000000e+00       0.00000000e+00       0.00000000e+00 
       0.00000000e+00       0.00000000e+00       0.00000000e+00 
       5.11435136e-04      -8.76684834e-09      -9.73941507e-05 
       5.11435136e-04      -8.76684834e-09      -9.73941507e-05 
       5.11435136e-04      -8.76684834e-09      -9.73941507e-05 
       5.11435136e-04      -8.76684834e-09      -9.73941507e-05 
       2.55717568e-04      -4.38342417e-09      -4.86970753e-05 
       2.55717568e-04      -4.38342417e-09      -4.86970753e-05 
       2.55717568e-04      -4.38342417e-09      -4.86970753e-05 
       2.55717568e-04      -4.38342417e-09      -4.86970753e-05 
       0.00000000e+00       0.00000000e+00       0.00000000e+00 
       0.00000000e+00       0.00000000e+00       0.00000000e+00 
       0.00000000e+00       0.00000000e+00       0.00000000e+00 
       0.00000000e+00       0.00000000e+00       0.00000000e+00 
       5.09051667e-04      -9.10241463e-09       9.70957138e-06 
       5.09051667e-04      -9.10241463e-09       9.70957138e-06 
       5.09051667e-04      -9.10241463e-09       9.70957138e-06 
       5.09051667e-04      -9.10241463e-09       9.70957138e-06 
       0.00000000e+00       0.00000000e+00       0.00000000e+00 
       0.00000000e+00       0.00000000e+00       0.00000000e+00 
       0.00000000e+00       0.00000000e+00       0.00000000e+00 
       0.00000000e+00       0.00000000e+00       0.00000000e+00 
       5.09051667e-04      -9.10241463e-09       9.70957138e-06 
       5.09051667e-04      -9.10241463e-09       9.70957138e-06 
       5.09051667e-04      -9.10241463e-09       9.70957138e-06 
       5.09051667e-04      -9.10241463e-09       9.70957138e-06 
       2.54525834e-04      -4.55120731e-09       4.85478569e-06 
       2.54525834e-04      -4.55120731e-09       4.85478569e-06 
       2.54525834e-04      -4.55120731e-09       4.85478569e-06 
       2.54525834e-04      -4.55120731e-09       4.85478569e-06 
       0.00000000e+00       0.00000000e+00       0.00000000e+00 
       0.00000000e+00       0.00000000e+00       0.00000000e+00 
       0.00000000e+00       0.00000000e+00       0.00000000e+00 
       0.00000000e+00       0.00000000e+00       0.00000000e+00 
       5.11435136e-04      -8.76684834e-09      -9.73941507e-05 
       5.11435136e-04      -8.76684834e-09      -9.73941507e-05 
       5.11435136e-04      -8.76684834e-09      -9.73941507e-05 
       5.11435136e-04      -8.76684834e-09      -9.73941507e-05 
       0.00000000e+00       0.00000000e+00       0.00000000e+00 
       0.00000000e+00       0.00000000e+00       0.00000000e+00 
       0.00000000e+00       0.00000000e+00       0.00000000e+00 
       0.00000000e+00       0.00000000e+00       0.00000000e+00 
       5.11435136e-04      -8.76684834e-09      -9.73941507e-05 
       5.11435136e-04      -8.76684834e-09      -9.73941507e-05 
       5.11435136e-04      -8.76684834e-09      -9.73941507e-05 
       5.11435136e-04      -8.76684834e-09      -9.73941507e-05 
       2.55717568e-04      -4.38342417e-09      -4.86970753e-05 
       2.55717568e-04      -4.38342417e-09      -4.86970753e-05 
       2.55717568e-04      -4.38342417e-09      -4.86970753e-05 
       2.55717568e-04      -4.38342417e-09      -4.86970753e-05 
       0.00000000e+00       0.00000000e+00       0.00000000e+00 
       0.00000000e+00       0.00000000e+00       0.00000000e+00 
       0.00000000e+00       0.00000000e+00       0.00000000e+00 
       0.00000000e+00       0.00000000e+00       0.00000000e+00 
       4.96529456e-04      -1.20654257e-06      -4.38976574e-05 
       4.96529456e-04      -1.20654257e-06      -4.38976574e-05 
       4.96529456e-04      -1.20654257e-06      -4.38976574e-05 
       4.96529456e-04      -1.20654257e-06      -4.38976574e-05 
       0.00000000e+00       0.00000000e+00       0.00000000e+00 
       0.00000000e+00       0.00000000e+00       0.00000000e+00 
       0.00000000e+00       0.00000000e+00       0.00000000e+00 
       0.00000000e+00       0.00000000e+00       0.00000000e+00 
       4.96529456e-04      -1.20654257e-06      -4.38976574e-05 
       4.96529456e-04      -1.20654257e-06      -4.38976574e-05 
       4.96529456e-04      -1.20654257e-06      -4.38976574e-05 
       4.96529456e-04      -1.20654257e-06      -4.38976574e-05 
       2.48264728e-04      -6.03271285e-07      -2.19488287e-05 
       2.48264728e-04      -6.03271285e-07      -2.19488287e-05 
       2.48264728e-04      -6.03271285e-07      -2.19488287e-05 
       2.48264728e-04      -6.03271285e-07      -2.19488287e-05 
       0.00000000e+00       0.00000000e+00       0.00000000e+00 
       0.00000000e+00       0.00000000e+00       0.00000000e+00 
       0.00000000e+00       0.00000000e+00       0.00000000e+00 
       0.00000000e+00       0.00000000e+00       0.00000000e+00 
       4.96529161e-04       1.18867303e-06      -4.38957812e-05 
       4.96529161e-04       1.18867303e-06      -4.38957812e-05 
       4.96529161e-04       1.18867303e-06      -4.38957812e-05 
       4.96529161e-04       1.18867303e-06      -4.38957812e-05 
       0.00000000e+00       0.00000000e+00       0.00000000e+00 
       0.00000000e+00       0.00000000e+00       0.00000000e+00 
       0.00000000e+00       0.00000000e+00       0.00000000e+00 
       0.00000000e+00       0.00000000e+00       0.00000000e+00 
       4.96529161e-04       1.18867303e-06      -4.38957812e-05 
       4.96529161e-04       1.18867303e-06      -4.38957812e-05 
       4.96529161e-04       1.18867303e-06      -4.38957812e-05 
       4.96529161e-04       1.18867303e-06      -4.38957812e-05 
       2.48264580e-04       5.94336515e-07      -2.19478906e-05 
       2.48264580e-04       5.94336515e-07      -2.19478906e-05 
       2.48264580e-04       5.94336515e-07      -2.19478906e-05 
       2.48264580e-04       5.94336515e-07      -2.19478906e-05 
       0.00000000e+00       0.00000000e+00       0.00000000e+00 
       0.00000000e+00       0.00000000e+00       0.00000000e+00 
       0.00000000e+00       0.00000000e+00       0.00000000e+00 
       0.00000000e+00       0.00000000e+00       0.00000000e+00 
       4.96529456e-04      -1.20654257e-06      -4.38976574e-05 
       4.96529456e-04      -1.20654257e-06      -4.38976574e-05 
       4.96529456e-04      -1.20654257e-06      -4.38976574e-05 
       4.96529456e-04      -1.20654257e-06      -4.38976574e-05 
       0.00000000e+00       0.00000000e+00       0.00000000e+00 
       0.00000000e+00       0.00000000e+00       0.00000000e+00 
       0.00000000e+00       0.00000000e+00       0.00000000e+00 
       0.00000000e+00       0.00000000e+00       0.00000000e+00 
       4.96529456e-04      -1.20654257e-06      -4.38976574e-05 
       4.96529456e-04      -1.20654257e-06      -4.38976574e-05 
       4.96529456e-04      -1.20654257e-06      -4.38976574e-05 
       4.96529456e-04      -1.20654257e-06      -4.38976574e-05 
       2.48264728e-04      -6.03271285e-07      -2.19488287e-05 
       2.48264728e-04      -6.03271285e-07      -2.19488287e-05 
       2.48264728e-04      -6.03271285e-07      -2.19488287e-05 
       2.48264728e-04      -6.03271285e-07      -2.19488287e-05 
       0.00000000e+00       0.00000000e+00       0.00000000e+00 
       0.00000000e+00       0.00000000e+00       0.00000000e+00 
       0.00000000e+00       0.00000000e+00       0.00000000e+00 
       0.00000000e+00       0.00000000e+00       0.00000000e+00 
       5.09051667e-04      -9.10241463e-09       9.70957138e-06 
       5.09051667e-04      -9.10241463e-09       9.70957138e-06 
       5.09051667e-04      -9.10241463e-09       9.70957138e-06 
       5.09051667e-04      -9.10241463e-09       9.70957138e-06 
       0.00000000e+00       0.00000000e+00       0.00000000e+00 
       0.00000000e+00       0.00000000e+00       0.00000000e+00 
       0.00000000e+00       0.00000000e+00       0.00000000e+00 
       0.00000000e+00       0.00000000e+00       0.00000000e+00 
       5.09051667e-04      -9.10241463e-09       9.70957138e-06 
       5.09051667e-04      -9.10241463e-09       9.70957138e-06 
       5.09051667e-04      -9.10241463e-09       9.70957138e-06 
       5.09051667e-04      -9.10241463e-09       9.70957138e-06 
       2.54525834e-04      -4.55120731e-09       4.85478569e-06 
       2.54525834e-04      -4.55120731e-09       4.85478569e-06 
       2.54525834e-04      -4.55120731e-09       4.85478569e-06 
       2.54525834e-04      -4.55120731e-09       4.85478569e-06 
       0.00000000e+00       0.00000000e+00       0.00000000e+00 
       0.00000000e+00       0.00000000e+00       0.00000000e+00 
       0.00000000e+00       0.00000000e+00       0.00000000e+00 
       0.00000000e+00       0.00000000e+00       0.00000000e+00 
       4.96529161e-04       1.18867303e-06      -4.38957812e-05 
       4.96529161e-04       1.18867303e-06      -4.38957812e-05 
       4.96529161e-04       1.18867303e-06      -4.38957812e-05 
       4.96529161e-04       1.18867303e-06      -4.38957812e-05 
       0.00000000e+00       0.00000000e+00       0.00000000e+00 
       0.00000000e+00       0.00000000e+00       0.00000000e+00 
       0.00000000e+00       0.00000000e+00       0.00000000e+00 
       0.00000000e+00       0.00000000e+00       0.00000000e+00 
       4.96529161e-04       1.18867303e-06      -4.38957812e-05 
       4.96529161e-04       1.18867303e-06      -4.38957812e-05 
       4.96529161e-04       1.18867303e-06      -4.38957812e-05 
       4.96529161e-04       1.18867303e-06      -4.38957812e-05 
       2.48264580e-04       5.94336515e-07      -2.19478906e-05 
       2.48264580e-04       5.94336515e-07      -2.19478906e-05 
       2.48264580e-04       5.94336515e-07      -2.19478906e-05 
       2.48264580e-04       5.94336515e-07      -2.19478906e-05 
       0.00000000e+00       0.00000000e+00       0.00000000e+00 
       0.00000000e+00       0.00000000e+00       0.00000000e+00 
       0.00000000e+00       0.00000000e+00       0.00000000e+00 
       0.00000000e+00       0.00000000e+00       0.00000000e+00 
       6.31283265e-04       1.67943763e-05       8.47022848e-04 
       6.31283265e-04       1.67943763e-05       8.47022848e-04 
       6.31283265e-04       1.67943763e-05       8.47022848e-04 
       6.31283265e-04       1.67943763e-05       8.47022848e-04 
       0.00000000e+00       0.00000000e+00       0.00000000e+00 
       0.00000000e+00       0.00000000e+00       0.00000000e+00 
       0.00000000e+00       0.00000000e+00       0.00000000e+00 
       0.00000000e+00       0.00000000e+00       0.00000000e+00 
       6.31283265e-04       1.67943763e-05       8.47022848e-04 
       6.31283265e-04       1.67943763e-05       8.47022848e-04 
       6.31283265e-04       1.67943763e-05       8.47022848e-04 
       6.31283265e-04       1.67943763e-05       8.47022848e-04 
       3.15641633e-04       8.39718814e-06       4.23511424e-04 
       3.15641633e-04       8.39718814e-06       4.23511424e-04 
       3.15641633e-04       8.39718814e-06       4.23511424e-04 
       3.15641633e-04       8.39718814e-06       4.23511424e-04 
       0.00000000e+00       0.00000000e+00       0.00000000e+00 
       0.00000000e+00       0.00000000e+00       0.00000000e+00 
       0.00000000e+00       0.00000000e+00       0.00000000e+00 
       0.00000000e+00       0.00000000e+00       0.00000000e+00 
       6.52136255e-04      -3.59823782e-05      -1.18857583e-03 
       6.52136255e-04      -3.59823782e-05      -1.18857583e-03 
       6.52136255e-04      -3.59823782e-05      -1.18857583e-03 
       6.52136255e-04      -3.59823782e-05      -1.18857583e-03 
       0.00000000e+00       0.00000000e+00       0.00000000e+00 
       0.00000000e+00       0.00000000e+00       0.00000000e+00 
       0.00000000e+00       0.00000000e+00       0.00000000e+00 
       0.00000000e+00       0.00000000e+00       0.00000000e+00 
       6.52136255e-04      -3.59823782e-05      -1.18857583e-03 
       6.52136255e-04      -3.59823782e-05      -1.18857583e-03 
       6.52136255e-04      -3.59823782e-05      -1.18857583e-03 
       6.52136255e-04      -3.59823782e-05      -1.18857583e-03 
       3.26068127e-04      -1.79911891e-05      -5.94287916e-04 
       3.26068127e-04      -1.79911891e-05      -5.94287916e-04 
       3.26068127e-04      -1.79911891e-05      -5.94287916e-04 
       3.26068127e-04      -1.79911891e-05      -5.94287916e-04 
       0.00000000e+00       0.00000000e+00       0.00000000e+00 
       0.00000000e+00       0.00000000e+00       0.00000000e+00 
       0.00000000e+00       0.00000000e+00       0.00000000e+00 
       0.00000000e+00       0.00000000e+00       0.00000000e+00 
       6.52137715e-04       3.59584724e-05      -1.18859836e-03 
       6.52137715e-04       3.59584724e-05      -1.18859836e-03 
       6.52137715e-04       3.59584724e-05      -1.18859836e-03 
       6.52137715e-04       3.59584724e-05      -1.18859836e-03 
       0.00000000e+00       0.00000000e+00       0.00000000e+00 
       0.00000000e+00       0.00000000e+00       0.00000000e+00 
       0.00000000e+00       0.00000000e+00       0.00000000e+00 
       0.00000000e+00       0.00000000e+00       0.00000000e+00 
       6.52137715e-04       3.59584724e-05      -1.18859836e-03 
       6.52137715e-04       3.59584724e-05      -1.18859836e-03 
       6.52137715e-04       3.59584724e-05      -1.18859836e-03 
       6.52137715e-04       3.59584724e-05      -1.18859836e-03 
       3.26068857e-04       1.79792362e-05      -5.94299178e-04 
       3.26068857e-04       1.79792362e-05      -5.94299178e-04 
       3.26068857e-04       1.79792362e-05      -5.94299178e-04 
       3.26068857e-04       1.79792362e-05      -5.94299178e-04 
       0.00000000e+00       0.00000000e+00       0.00000000e+00 
       0.00000000e+00       0.00000000e+00       0.00000000e+00 
       0.00000000e+00       0.00000000e+00       0.00000000e+00 
       0.00000000e+00       0.00000000e+00       0.00000000e+00 
       6.31282539e-04      -1.68173602e-05       8.47000370e-04 
       6.31282539e-04      -1.68173602e-05       8.47000370e-04 
       6.31282539e-04      -1.68173602e-05       8.47000370e-04 
       6.31282539e-04      -1.68173602e-05       8.47000370e-04 
       0.00000000e+00       0.00000000e+00       0.00000000e+00 
       0.00000000e+00       0.00000000e+00       0.00000000e+00 
       0.00000000e+00       0.00000000e+00       0.00000000e+00 
       0.00000000e+00       0.00000000e+00       0.00000000e+00 
       6.31282539e-04      -1.68173602e-05       8.47000370e-04 
       6.31282539e-04      -1.68173602e-05       8.47000370e-04 
       6.31282539e-04      -1.68173602e-05       8.47000370e-04 
       6.31282539e-04      -1.68173602e-05       8.47000370e-04 
       3.15641269e-04      -8.40868008e-06       4.23500185e-04 
       3.15641269e-04      -8.40868008e-06       4.23500185e-04 
       3.15641269e-04      -8.40868008e-06       4.23500185e-04 
       3.15641269e-04      -8.40868008e-06       4.23500185e-04 
       5.11435136e-04      -8.76684834e-09      -9.73941507e-05 
       5.11435136e-04      -8.76684834e-09      -9.73941507e-05 
       5.11435136e-04      -8.76684834e-09      -9.73941507e-05 
       5.11435136e-04      -8.76684834e-09      -9.73941507e-05 
       6.31282539e-04      -1.68173602e-05       8.47000370e-04 
       6.31282539e-04      -1.68173602e-05       8.47000370e-04 
       6.31282539e-04      -1.68173602e-05       8.47000370e-04 
       6.31282539e-04      -1.68173602e-05       8.47000370e-04 
       5.11435136e-04      -8.76684834e-09      -9.73941507e-05 
       5.11435136e-04      -8.76684834e-09      -9.73941507e-05 
       5.11435136e-04      -8.76684834e-09      -9.73941507e-05 
       5.11435136e-04      -8.76684834e-09      -9.73941507e-05 
       6.31282539e-04      -1.68173602e-05       8.47000370e-04 
       6.31282539e-04      -1.68173602e-05       8.47000370e-04 
       6.31282539e-04      -1.68173602e-05       8.47000370e-04 
       6.31282539e-04      -1.68173602e-05       8.47000370e-04 
       5.71358837e-04      -8.41306351e-06       3.74803109e-04 
       5.71358837e-04      -8.41306351e-06       3.74803109e-04 
       5.71358837e-04      -8.41306351e-06       3.74803109e-04 
       5.71358837e-04      -8.41306351e-06       3.74803109e-04 
       5.11435136e-04      -8.76684834e-09      -9.73941507e-05 
       5.11435136e-04      -8.76684834e-09      -9.73941507e-05 
       5.11435136e-04      -8.76684834e-09      -9.73941507e-05 
       5.11435136e-04      -8.76684834e-09      -9.73941507e-05 
       6.31283265e-04       1.67943763e-05       8.47022848e-04 
       6.31283265e-04       1.67943763e-05       8.47022848e-04 
       6.31283265e-04       1.67943763e-05       8.47022848e-04 
       6.31283265e-04       1.67943763e-05       8.47022848e-04 
       5.11435136e-04      -8.76684834e-09      -9.73941507e-05 
       5.11435136e-04      -8.76684834e-09      -9.73941507e-05 
       5.11435136e-04      -8.76684834e-09      -9.73941507e-05 
       5.11435136e-04      -8.76684834e-09      -9.73941507e-05 
       6.31283265e-04       1.67943763e-05       8.47022848e-04 
       6.31283265e-04       1.67943763e-05       8.47022848e-04 
       6.31283265e-04       1.67943763e-05       8.47022848e-04 
       6.31283265e-04       1.67943763e-05       8.47022848e-04 
       5.71359200e-04       8.39280471e-06       3.74814349e-04 
       5.71359200e-04       8.39280471e-06       3.74814349e-04 
       5.71359200e-04       8.39280471e-06       3.74814349e-04 
       5.71359200e-04       8.39280471e-06       3.74814349e-04 
       5.09051667e-04      -9.10241463e-09       9.70957138e-06 
       5.09051667e-04      -9.10241463e-09       9.70957138e-06 
       5.09051667e-04      -9.10241463e-09       9.70957138e-06 
       5.09051667e-04      -9.10241463e-09       9.70957138e-06 
       6.52137715e-04       3.59584724e-05      -1.18859836e-03 
       6.52137715e-04       3.59584724e-05      -1.18859836e-03 
       6.52137715e-04       3.59584724e-05      -1.18859836e-03 
       6.52137715e-04       3.59584724e-05      -1.18859836e-03 
       5.09051667e-04      -9.10241463e-09       9.70957138e-06 
       5.09051667e-04      -9.10241463e-09       9.70957138e-06 
       5.09051667e-04      -9.10241463e-09       9.70957138e-06 
       5.09051667e-04      -9.10241463e-09       9.70957138e-06 
       6.52137715e-04       3.59584724e-05      -1.18859836e-03 
       6.52137715e-04       3.59584724e-05      -1.18859836e-03 
       6.52137715e-04       3.59584724e-05      -1.18859836e-03 
       6.52137715e-04       3.59584724e-05      -1.18859836e-03 
       5.80594691e-04       1.79746850e-05      -5.89444393e-04 
       5.80594691e-04       1.79746850e-05      -5.89444393e-04 
       5.80594691e-04       1.79746850e-05      -5.89444393e-04 
       5.80594691e-04       1.79746850e-05      -5.89444393e-04 
       5.09051667e-04      -9.10241463e-09       9.70957138e-06 
       5.09051667e-04      -9.10241463e-09       9.70957138e-06 
       5.09051667e-04      -9.10241463e-09       9.70957138e-06 
       5.09051667e-04      -9.10241463e-09       9.70957138e-06 
       4.96529161e-04       1.18867303e-06      -4.38957812e-05 
       4.96529161e-04       1.18867303e-06      -4.38957812e-05 