# vtk DataFile Version 2.0
./output/Static_Tower/Static_Tower_0004.vtk
ASCII
DATASET UNSTRUCTURED_GRID

POINTS 13260 float
      -4.335799e+00       4.312526e+00      -9.533912e-03 
      -4.309007e+00       4.315348e+00      -9.533912e-03 
      -4.311001e+00       4.334274e+00       9.533912e-03 
      -4.337793e+00       4.331452e+00       9.533912e-03 
      -3.880289e+00      -1.086795e-02       4.329308e+00 
      -3.853498e+00      -8.045224e-03       4.329308e+00 
      -3.855492e+00       1.088065e-02       4.348376e+00 
      -3.882283e+00       8.057923e-03       4.348376e+00 
      -4.321990e+00       4.310017e+00      -1.348299e-02 
      -4.304456e+00       4.325396e+00       0.000000e+00 
      -4.324810e+00       4.336783e+00       1.348299e-02 
      -4.342344e+00       4.321404e+00       0.000000e+00 
      -3.866480e+00      -1.337626e-02       4.325359e+00 
      -3.848946e+00       2.002316e-03       4.338842e+00 
      -3.869300e+00       1.338896e-02       4.352325e+00 
      -3.886835e+00      -1.989616e-03       4.338842e+00 
      -4.108044e+00       2.150829e+00       2.159887e+00 
      -4.081252e+00       2.153652e+00       2.159887e+00 
      -4.083246e+00       2.172577e+00       2.178955e+00 
      -4.110038e+00       2.169755e+00       2.178955e+00 
       4.309007e+00       4.315348e+00      -9.533912e-03 
       4.335799e+00       4.312526e+00      -9.533912e-03 
       4.337793e+00       4.331452e+00       9.533912e-03 
       4.311001e+00       4.334274e+00       9.533912e-03 
       3.853497e+00      -8.045223e-03       4.329308e+00 
       3.880289e+00      -1.086795e-02       4.329308e+00 
       3.882283e+00       8.057923e-03       4.348376e+00 
       3.855491e+00       1.088065e-02       4.348376e+00 
       4.321990e+00       4.310017e+00      -1.348299e-02 
       4.342344e+00       4.321404e+00       0.000000e+00 
       4.324810e+00       4.336783e+00       1.348299e-02 
       4.304456e+00       4.325396e+00       0.000000e+00 
       3.866480e+00      -1.337626e-02       4.325359e+00 
       3.886835e+00      -1.989617e-03       4.338842e+00 
       3.869300e+00       1.338896e-02       4.352325e+00 
       3.848946e+00       2.002316e-03       4.338842e+00 
       4.081252e+00       2.153652e+00       2.159887e+00 
       4.108044e+00       2.150829e+00       2.159887e+00 
       4.110038e+00       2.169755e+00       2.178955e+00 
       4.083246e+00       2.172577e+00       2.178955e+00 
      -4.309007e+00      -4.315348e+00      -9.533926e-03 
      -4.335799e+00      -4.312526e+00      -9.533926e-03 
      -4.337793e+00      -4.331452e+00       9.533926e-03 
      -4.311001e+00      -4.334274e+00       9.533926e-03 
      -3.853498e+00       8.057914e-03       4.329308e+00 
      -3.880289e+00       1.088063e-02       4.329308e+00 
      -3.882283e+00      -8.045215e-03       4.348376e+00 
      -3.855492e+00      -1.086793e-02       4.348376e+00 
      -4.321990e+00      -4.310017e+00      -1.348301e-02 
      -4.342344e+00      -4.321404e+00       0.000000e+00 
      -4.324810e+00      -4.336783e+00       1.348301e-02 
      -4.304456e+00      -4.325396e+00       0.000000e+00 
      -3.866480e+00       1.338894e-02       4.325359e+00 
      -3.886835e+00       2.002310e-03       4.338842e+00 
      -3.869300e+00      -1.337624e-02       4.352325e+00 
      -3.848946e+00      -1.989610e-03       4.338842e+00 
      -4.081252e+00      -2.153645e+00       2.159887e+00 
      -4.108044e+00      -2.150823e+00       2.159887e+00 
      -4.110038e+00      -2.169748e+00       2.178955e+00 
      -4.083246e+00      -2.172571e+00       2.178955e+00 
      -4.315348e+00       4.309007e+00      -9.533917e-03 
      -4.312526e+00       4.335799e+00      -9.533917e-03 
      -4.331452e+00       4.337793e+00       9.533917e-03 
      -4.334274e+00       4.311001e+00       9.533917e-03 
       8.051508e-03       3.853504e+00       4.329309e+00 
       1.087419e-02       3.880295e+00       4.329309e+00 
      -8.051675e-03       3.882289e+00       4.348377e+00 
      -1.087435e-02       3.855498e+00       4.348377e+00 
      -4.310017e+00       4.321990e+00      -1.348300e-02 
      -4.321404e+00       4.342344e+00       0.000000e+00 
      -4.336783e+00       4.324810e+00       1.348300e-02 
      -4.325396e+00       4.304456e+00       0.000000e+00 
       1.338252e-02       3.866487e+00       4.325360e+00 
       1.995852e-03       3.886841e+00       4.338843e+00 
      -1.338269e-02       3.869307e+00       4.352326e+00 
      -1.996019e-03       3.848952e+00       4.338843e+00 
      -2.153648e+00       4.081256e+00       2.159887e+00 
      -2.150826e+00       4.108047e+00       2.159887e+00 
      -2.169752e+00       4.110041e+00       2.178955e+00 
      -2.172574e+00       4.083250e+00       2.178955e+00 
      -4.312526e+00      -4.335799e+00      -9.533920e-03 
      -4.315348e+00      -4.309007e+00      -9.533920e-03 
      -4.334274e+00      -4.311001e+00       9.533920e-03 
      -4.331452e+00      -4.337793e+00       9.533920e-03 
       1.087422e-02      -3.880282e+00       4.329307e+00 
       8.051462e-03      -3.853491e+00       4.329307e+00 
      -1.087439e-02      -3.855485e+00       4.348375e+00 
      -8.051629e-03      -3.882276e+00       4.348375e+00 
      -4.310017e+00      -4.321990e+00      -1.348300e-02 
      -4.325396e+00      -4.304456e+00       0.000000e+00 
      -4.336783e+00      -4.324810e+00       1.348300e-02 
      -4.321404e+00      -4.342344e+00       0.000000e+00 
       1.338251e-02      -3.866474e+00       4.325358e+00 
      -1.996075e-03      -3.848939e+00       4.338841e+00 
      -1.338268e-02      -3.869294e+00       4.352324e+00 
       1.995908e-03      -3.886828e+00       4.338841e+00 
      -2.150826e+00      -4.108041e+00       2.159887e+00 
      -2.153648e+00      -4.081249e+00       2.159887e+00 
      -2.172574e+00      -4.083243e+00       2.178955e+00 
      -2.169752e+00      -4.110035e+00       2.178955e+00 
       4.312526e+00       4.335799e+00      -9.533918e-03 
       4.315348e+00       4.309007e+00      -9.533918e-03 
       4.334274e+00       4.311001e+00       9.533918e-03 
       4.331452e+00       4.337793e+00       9.533918e-03 
      -1.087435e-02       3.880295e+00       4.329309e+00 
      -8.051675e-03       3.853504e+00       4.329309e+00 
       1.087419e-02       3.855498e+00       4.348377e+00 
       8.051508e-03       3.882289e+00       4.348377e+00 
       4.310017e+00       4.321990e+00      -1.348300e-02 
       4.325396e+00       4.304456e+00       0.000000e+00 
       4.336783e+00       4.324810e+00       1.348300e-02 
       4.321404e+00       4.342344e+00       0.000000e+00 
      -1.338269e-02       3.866487e+00       4.325360e+00 
       1.995852e-03       3.848952e+00       4.338843e+00 
       1.338252e-02       3.869307e+00       4.352326e+00 
      -1.996018e-03       3.886841e+00       4.338843e+00 
       2.150826e+00       4.108047e+00       2.159887e+00 
       2.153648e+00       4.081256e+00       2.159887e+00 
       2.172574e+00       4.083250e+00       2.178955e+00 
       2.169752e+00       4.110041e+00       2.178955e+00 
       4.335799e+00      -4.312526e+00      -9.533926e-03 
       4.309007e+00      -4.315348e+00      -9.533926e-03 
       4.311001e+00      -4.334274e+00       9.533926e-03 
       4.337793e+00      -4.331452e+00       9.533926e-03 
       3.880289e+00       1.088063e-02       4.329308e+00 
       3.853497e+00       8.057913e-03       4.329308e+00 
       3.855491e+00      -1.086793e-02       4.348376e+00 
       3.882283e+00      -8.045214e-03       4.348376e+00 
       4.321990e+00      -4.310017e+00      -1.348301e-02 
       4.304456e+00      -4.325396e+00       0.000000e+00 
       4.324810e+00      -4.336783e+00       1.348301e-02 
       4.342344e+00      -4.321404e+00       0.000000e+00 
       3.866480e+00       1.338894e-02       4.325359e+00 
       3.848946e+00      -1.989611e-03       4.338842e+00 
       3.869300e+00      -1.337624e-02       4.352325e+00 
       3.886835e+00       2.002311e-03       4.338842e+00 
       4.108044e+00      -2.150823e+00       2.159887e+00 
       4.081252e+00      -2.153645e+00       2.159887e+00 
       4.083246e+00      -2.172571e+00       2.178955e+00 
       4.110038e+00      -2.169748e+00       2.178955e+00 
       4.315348e+00      -4.309007e+00      -9.533921e-03 
       4.312526e+00      -4.335799e+00      -9.533921e-03 
       4.331452e+00      -4.337793e+00       9.533921e-03 
       4.334274e+00      -4.311001e+00       9.533921e-03 
      -8.051629e-03      -3.853491e+00       4.329307e+00 
      -1.087439e-02      -3.880282e+00       4.329307e+00 
       8.051462e-03      -3.882276e+00       4.348375e+00 
       1.087422e-02      -3.855485e+00       4.348375e+00 
       4.310017e+00      -4.321990e+00      -1.348300e-02 
       4.321404e+00      -4.342344e+00       0.000000e+00 
       4.336783e+00      -4.324810e+00       1.348300e-02 
       4.325396e+00      -4.304456e+00       0.000000e+00 
      -1.338268e-02      -3.866474e+00       4.325358e+00 
      -1.996075e-03      -3.886828e+00       4.338841e+00 
       1.338251e-02      -3.869294e+00       4.352324e+00 
       1.995908e-03      -3.848939e+00       4.338841e+00 
       2.153648e+00      -4.081249e+00       2.159887e+00 
       2.150826e+00      -4.108041e+00       2.159887e+00 
       2.169752e+00      -4.110035e+00       2.178955e+00 
       2.172574e+00      -4.083243e+00       2.178955e+00 
      -4.290298e+00      -4.323580e+00      -3.456665e-03 
      -4.323581e+00      -4.290298e+00      -3.456665e-03 
      -4.356502e+00      -4.323220e+00       3.456665e-03 
      -4.323219e+00      -4.356502e+00       3.456665e-03 
      -3.834904e+00      -3.868178e+00       4.333777e+00 
      -3.868187e+00      -3.834896e+00       4.333777e+00 
      -3.901108e+00      -3.867818e+00       4.340690e+00 
[...]
POINT_DATA     13260 
VECTORS Displacements float
       0.00000000e+00       0.00000000e+00       0.00000000e+00 
       0.00000000e+00       0.00000000e+00       0.00000000e+00 
       0.00000000e+00       0.00000000e+00       0.00000000e+00 
       0.00000000e+00       0.00000000e+00       0.00000000e+00 
       9.66933089e-06       6.34968293e-06      -3.57951084e-04 
       9.66933089e-06       6.34968293e-06      -3.57951084e-04 
       9.66933089e-06       6.34968293e-06      -3.57951084e-04 
       9.66933089e-06       6.34968293e-06      -3.57951084e-04 
       0.00000000e+00       0.00000000e+00       0.00000000e+00 
       0.00000000e+00       0.00000000e+00       0.00000000e+00 
       0.00000000e+00       0.00000000e+00       0.00000000e+00 
       0.00000000e+00       0.00000000e+00       0.00000000e+00 
       9.66933089e-06       6.34968293e-06      -3.57951084e-04 
       9.66933089e-06       6.34968293e-06      -3.57951084e-04 
       9.66933089e-06       6.34968293e-06      -3.57951084e-04 
       9.66933089e-06       6.34968293e-06      -3.57951084e-04 
       4.83466545e-06       3.17484147e-06      -1.78975542e-04 
       4.83466545e-06       3.17484147e-06      -1.78975542e-04 
       4.83466545e-06       3.17484147e-06      -1.78975542e-04 
       4.83466545e-06       3.17484147e-06      -1.78975542e-04 
       0.00000000e+00       0.00000000e+00       0.00000000e+00 
       0.00000000e+00       0.00000000e+00       0.00000000e+00 
       0.00000000e+00       0.00000000e+00       0.00000000e+00 
       0.00000000e+00       0.00000000e+00       0.00000000e+00 
      -9.83603734e-06       6.34972150e-06      -3.57968617e-04 
      -9.83603734e-06       6.34972150e-06      -3.57968617e-04 
      -9.83603734e-06       6.34972150e-06      -3.57968617e-04 
      -9.83603734e-06       6.34972150e-06      -3.57968617e-04 
       0.00000000e+00       0.00000000e+00       0.00000000e+00 
       0.00000000e+00       0.00000000e+00       0.00000000e+00 
       0.00000000e+00       0.00000000e+00       0.00000000e+00 
       0.00000000e+00       0.00000000e+00       0.00000000e+00 
      -9.83603734e-06       6.34972150e-06      -3.57968617e-04 
      -9.83603734e-06       6.34972150e-06      -3.57968617e-04 
      -9.83603734e-06       6.34972150e-06      -3.57968617e-04 
      -9.83603734e-06       6.34972150e-06      -3.57968617e-04 
      -4.91801867e-06       3.17486075e-06      -1.78984309e-04 
      -4.91801867e-06       3.17486075e-06      -1.78984309e-04 
      -4.91801867e-06       3.17486075e-06      -1.78984309e-04 
      -4.91801867e-06       3.17486075e-06      -1.78984309e-04 
       0.00000000e+00       0.00000000e+00       0.00000000e+00 
       0.00000000e+00       0.00000000e+00       0.00000000e+00 
       0.00000000e+00       0.00000000e+00       0.00000000e+00 
       0.00000000e+00       0.00000000e+00       0.00000000e+00 
       9.66933089e-06       6.34968293e-06      -3.57951084e-04 
       9.66933089e-06       6.34968293e-06      -3.57951084e-04 
       9.66933089e-06       6.34968293e-06      -3.57951084e-04 
       9.66933089e-06       6.34968293e-06      -3.57951084e-04 
       0.00000000e+00       0.00000000e+00       0.00000000e+00 
       0.00000000e+00       0.00000000e+00       0.00000000e+00 
       0.00000000e+00       0.00000000e+00       0.00000000e+00 
       0.00000000e+00       0.00000000e+00       0.00000000e+00 
       9.66933089e-06       6.34968293e-06      -3.57951084e-04 
       9.66933089e-06       6.34968293e-06      -3.57951084e-04 
       9.66933089e-06       6.34968293e-06      -3.57951084e-04 
       9.66933089e-06       6.34968293e-06      -3.57951084e-04 
       4.83466545e-06       3.17484147e-06      -1.78975542e-04 
       4.83466545e-06       3.17484147e-06      -1.78975542e-04 
       4.83466545e-06       3.17484147e-06      -1.78975542e-04 
       4.83466545e-06       3.17484147e-06      -1.78975542e-04 
       0.00000000e+00       0.00000000e+00       0.00000000e+00 
       0.00000000e+00       0.00000000e+00       0.00000000e+00 
       0.00000000e+00       0.00000000e+00       0.00000000e+00 
       0.00000000e+00       0.00000000e+00       0.00000000e+00 
      -8.33648801e-08      -3.21971367e-06      -3.57275714e-04 
      -8.33648801e-08      -3.21971367e-06      -3.57275714e-04 
      -8.33648801e-08      -3.21971367e-06      -3.57275714e-04 
      -8.33648801e-08      -3.21971367e-06      -3.57275714e-04 
       0.00000000e+00       0.00000000e+00       0.00000000e+00 
       0.00000000e+00       0.00000000e+00       0.00000000e+00 
       0.00000000e+00       0.00000000e+00       0.00000000e+00 
       0.00000000e+00       0.00000000e+00       0.00000000e+00 
      -8.33648801e-08      -3.21971367e-06      -3.57275714e-04 
      -8.33648801e-08      -3.21971367e-06      -3.57275714e-04 
      -8.33648801e-08      -3.21971367e-06      -3.57275714e-04 
      -8.33648801e-08      -3.21971367e-06      -3.57275714e-04 
      -4.16824401e-08      -1.60985683e-06      -1.78637857e-04 
      -4.16824401e-08      -1.60985683e-06      -1.78637857e-04 
      -4.16824401e-08      -1.60985683e-06      -1.78637857e-04 
      -4.16824401e-08      -1.60985683e-06      -1.78637857e-04 
       0.00000000e+00       0.00000000e+00       0.00000000e+00 
       0.00000000e+00       0.00000000e+00       0.00000000e+00 
       0.00000000e+00       0.00000000e+00       0.00000000e+00 
       0.00000000e+00       0.00000000e+00       0.00000000e+00 
      -8.33232262e-08       1.62856636e-05      -3.58644146e-04 
      -8.33232262e-08       1.62856636e-05      -3.58644146e-04 
      -8.33232262e-08       1.62856636e-05      -3.58644146e-04 
      -8.33232262e-08       1.62856636e-05      -3.58644146e-04 
       0.00000000e+00       0.00000000e+00       0.00000000e+00 
       0.00000000e+00       0.00000000e+00       0.00000000e+00 
       0.00000000e+00       0.00000000e+00       0.00000000e+00 
       0.00000000e+00       0.00000000e+00       0.00000000e+00 
      -8.33232262e-08       1.62856636e-05      -3.58644146e-04 
      -8.33232262e-08       1.62856636e-05      -3.58644146e-04 
      -8.33232262e-08       1.62856636e-05      -3.58644146e-04 
      -8.33232262e-08       1.62856636e-05      -3.58644146e-04 
      -4.16616131e-08       8.14283179e-06      -1.79322073e-04 
      -4.16616131e-08       8.14283179e-06      -1.79322073e-04 
      -4.16616131e-08       8.14283179e-06      -1.79322073e-04 
      -4.16616131e-08       8.14283179e-06      -1.79322073e-04 
       0.00000000e+00       0.00000000e+00       0.00000000e+00 
       0.00000000e+00       0.00000000e+00       0.00000000e+00 
       0.00000000e+00       0.00000000e+00       0.00000000e+00 
       0.00000000e+00       0.00000000e+00       0.00000000e+00 
      -8.33648801e-08      -3.21971367e-06      -3.57275714e-04 
      -8.33648801e-08      -3.21971367e-06      -3.57275714e-04 
      -8.33648801e-08      -3.21971367e-06      -3.57275714e-04 
      -8.33648801e-08      -3.21971367e-06      -3.57275714e-04 
       0.00000000e+00       0.00000000e+00       0.00000000e+00 
       0.00000000e+00       0.00000000e+00       0.00000000e+00 
       0.00000000e+00       0.00000000e+00       0.00000000e+00 
       0.00000000e+00       0.00000000e+00       0.00000000e+00 
      -8.33648801e-08      -3.21971367e-06      -3.57275714e-04 
      -8.33648801e-08      -3.21971367e-06      -3.57275714e-04 
      -8.33648801e-08      -3.21971367e-06      -3.57275714e-04 
      -8.33648801e-08      -3.21971367e-06      -3.57275714e-04 
      -4.16824401e-08      -1.60985683e-06      -1.78637857e-04 
      -4.16824401e-08      -1.60985683e-06      -1.78637857e-04 
      -4.16824401e-08      -1.60985683e-06      -1.78637857e-04 
      -4.16824401e-08      -1.60985683e-06      -1.78637857e-04 
       0.00000000e+00       0.00000000e+00       0.00000000e+00 
       0.00000000e+00       0.00000000e+00       0.00000000e+00 
       0.00000000e+00       0.00000000e+00       0.00000000e+00 
       0.00000000e+00       0.00000000e+00       0.00000000e+00 
      -9.83603734e-06       6.34972150e-06      -3.57968617e-04 
      -9.83603734e-06       6.34972150e-06      -3.57968617e-04 
      -9.83603734e-06       6.34972150e-06      -3.57968617e-04 
      -9.83603734e-06       6.34972150e-06      -3.57968617e-04 
       0.00000000e+00       0.00000000e+00       0.00000000e+00 
       0.00000000e+00       0.00000000e+00       0.00000000e+00 
       0.00000000e+00       0.00000000e+00       0.00000000e+00 
       0.00000000e+00       0.00000000e+00       0.00000000e+00 
      -9.83603734e-06       6.34972150e-06      -3.57968617e-04 
      -9.83603734e-06       6.34972150e-06      -3.57968617e-04 
      -9.83603734e-06       6.34972150e-06      -3.57968617e-04 
      -9.83603734e-06       6.34972150e-06      -3.57968617e-04 
      -4.91801867e-06       3.17486075e-06      -1.78984309e-04 
      -4.91801867e-06       3.17486075e-06      -1.78984309e-04 
      -4.91801867e-06       3.17486075e-06      -1.78984309e-04 
      -4.91801867e-06       3.17486075e-06      -1.78984309e-04 
       0.00000000e+00       0.00000000e+00       0.00000000e+00 
       0.00000000e+00       0.00000000e+00       0.00000000e+00 
       0.00000000e+00       0.00000000e+00       0.00000000e+00 
       0.00000000e+00       0.00000000e+00       0.00000000e+00 
      -8.33232262e-08       1.62856636e-05      -3.58644146e-04 
      -8.33232262e-08       1.62856636e-05      -3.58644146e-04 
      -8.33232262e-08       1.62856636e-05      -3.58644146e-04 
      -8.33232262e-08       1.62856636e-05      -3.58644146e-04 
       0.00000000e+00       0.00000000e+00       0.00000000e+00 
       0.00000000e+00       0.00000000e+00       0.00000000e+00 
       0.00000000e+00       0.00000000e+00       0.00000000e+00 
       0.00000000e+00       0.00000000e+00       0.00000000e+00 
      -8.33232262e-08       1.62856636e-05      -3.58644146e-04 
      -8.33232262e-08       1.62856636e-05      -3.58644146e-04 
      -8.33232262e-08       1.62856636e-05      -3.58644146e-04 
      -8.33232262e-08       1.62856636e-05      -3.58644146e-04 
      -4.16616131e-08       8.14283179e-06      -1.79322073e-04 
      -4.16616131e-08       8.14283179e-06      -1.79322073e-04 
      -4.16616131e-08       8.14283179e-06      -1.79322073e-04 
      -4.16616131e-08       8.14283179e-06      -1.79322073e-04 
       0.00000000e+00       0.00000000e+00       0.00000000e+00 
       0.00000000e+00       0.00000000e+00       0.00000000e+00 
       0.00000000e+00       0.00000000e+00       0.00000000e+00 
       0.00000000e+00       0.00000000e+00       0.00000000e+00 
      -1.05896803e-04      -9.78326476e-05      -1.96636991e-03 
      -1.05896803e-04      -9.78326476e-05      -1.96636991e-03 
      -1.05896803e-04      -9.78326476e-05      -1.96636991e-03 
      -1.05896803e-04      -9.78326476e-05      -1.96636991e-03 
       0.00000000e+00       0.00000000e+00       0.00000000e+00 
       0.00000000e+00       0.00000000e+00       0.00000000e+00 
       0.00000000e+00       0.00000000e+00       0.00000000e+00 
       0.00000000e+00       0.00000000e+00       0.00000000e+00 
      -1.05896803e-04      -9.78326476e-05      -1.96636991e-03 
      -1.05896803e-04      -9.78326476e-05      -1.96636991e-03 
      -1.05896803e-04      -9.78326476e-05      -1.96636991e-03 
      -1.05896803e-04      -9.78326476e-05      -1.96636991e-03 
      -5.29484014e-05      -4.89163238e-05      -9.83184955e-04 
      -5.29484014e-05      -4.89163238e-05      -9.83184955e-04 
      -5.29484014e-05      -4.89163238e-05      -9.83184955e-04 
      -5.29484014e-05      -4.89163238e-05      -9.83184955e-04 
       0.00000000e+00       0.00000000e+00       0.00000000e+00 
       0.00000000e+00       0.00000000e+00       0.00000000e+00 
       0.00000000e+00       0.00000000e+00       0.00000000e+00 
       0.00000000e+00       0.00000000e+00       0.00000000e+00 
       1.05678084e-04      -9.78422084e-05      -1.96657889e-03 
       1.05678084e-04      -9.78422084e-05      -1.96657889e-03 
       1.05678084e-04      -9.78422084e-05      -1.96657889e-03 
       1.05678084e-04      -9.78422084e-05      -1.96657889e-03 
       0.00000000e+00       0.00000000e+00       0.00000000e+00 
       0.00000000e+00       0.00000000e+00       0.00000000e+00 
       0.00000000e+00       0.00000000e+00       0.00000000e+00 
       0.00000000e+00       0.00000000e+00       0.00000000e+00 
       1.05678084e-04      -9.78422084e-05      -1.96657889e-03 
       1.05678084e-04      -9.78422084e-05      -1.96657889e-03 
       1.05678084e-04      -9.78422084e-05      -1.96657889e-03 
       1.05678084e-04      -9.78422084e-05      -1.96657889e-03 
       5.28390419e-05      -4.89211042e-05      -9.83289443e-04 
       5.28390419e-05      -4.89211042e-05      -9.83289443e-04 
       5.28390419e-05      -4.89211042e-05      -9.83289443e-04 
       5.28390419e-05      -4.89211042e-05      -9.83289443e-04 
       0.00000000e+00       0.00000000e+00       0.00000000e+00 
       0.00000000e+00       0.00000000e+00       0.00000000e+00 
       0.00000000e+00       0.00000000e+00       0.00000000e+00 
       0.00000000e+00       0.00000000e+00       0.00000000e+00 
       1.06302697e-04       1.14233267e-04      -1.99446243e-03 
       1.06302697e-04       1.14233267e-04      -1.99446243e-03 
       1.06302697e-04       1.14233267e-04      -1.99446243e-03 
       1.06302697e-04       1.14233267e-04      -1.99446243e-03 
       0.00000000e+00       0.00000000e+00       0.00000000e+00 
       0.00000000e+00       0.00000000e+00       0.00000000e+00 
       0.00000000e+00       0.00000000e+00       0.00000000e+00 
       0.00000000e+00       0.00000000e+00       0.00000000e+00 
       1.06302697e-04       1.14233267e-04      -1.99446243e-03 
       1.06302697e-04       1.14233267e-04      -1.99446243e-03 
       1.06302697e-04       1.14233267e-04      -1.99446243e-03 
       1.06302697e-04       1.14233267e-04      -1.99446243e-03 
       5.31513483e-05       5.71166334e-05      -9.97231215e-04 
       5.31513483e-05       5.71166334e-05      -9.97231215e-04 
       5.31513483e-05       5.71166334e-05      -9.97231215e-04 
       5.31513483e-05       5.71166334e-05      -9.97231215e-04 
       0.00000000e+00       0.00000000e+00       0.00000000e+00 
       0.00000000e+00       0.00000000e+00       0.00000000e+00 
       0.00000000e+00       0.00000000e+00       0.00000000e+00 
       0.00000000e+00       0.00000000e+00       0.00000000e+00 
      -1.06521529e-04       1.14223608e-04      -1.99425345e-03 
      -1.06521529e-04       1.14223608e-04      -1.99425345e-03 
      -1.06521529e-04       1.14223608e-04      -1.99425345e-03 
      -1.06521529e-04       1.14223608e-04      -1.99425345e-03 
       0.00000000e+00       0.00000000e+00       0.00000000e+00 
       0.00000000e+00       0.00000000e+00       0.00000000e+00 
       0.00000000e+00       0.00000000e+00       0.00000000e+00 
       0.00000000e+00       0.00000000e+00       0.00000000e+00 
      -1.06521529e-04       1.14223608e-04      -1.99425345e-03 
      -1.06521529e-04       1.14223608e-04      -1.99425345e-03 
      -1.06521529e-04       1.14223608e-04      -1.99425345e-03 
      -1.06521529e-04       1.14223608e-04      -1.99425345e-03 
      -5.32607643e-05       5.71118042e-05      -9.97126727e-04 
      -5.32607643e-05       5.71118042e-05      -9.97126727e-04 
      -5.32607643e-05       5.71118042e-05      -9.97126727e-04 
      -5.32607643e-05       5.71118042e-05      -9.97126727e-04 
       9.66933089e-06       6.34968293e-06      -3.57951084e-04 
       9.66933089e-06       6.34968293e-06      -3.57951084e-04 
       9.66933089e-06       6.34968293e-06      -3.57951084e-04 
       9.66933089e-06       6.34968293e-06      -3.57951084e-04 
      -1.06521529e-04       1.14223608e-04      -1.99425345e-03 
      -1.06521529e-04       1.14223608e-04      -1.99425345e-03 
      -1.06521529e-04       1.14223608e-04      -1.99425345e-03 
      -1.06521529e-04       1.14223608e-04      -1.99425345e-03 
       9.66933089e-06       6.34968293e-06      -3.57951084e-04 
       9.66933089e-06       6.34968293e-06      -3.57951084e-04 
       9.66933089e-06       6.34968293e-06      -3.57951084e-04 
       9.66933089e-06       6.34968293e-06      -3.57951084e-04 
      -1.06521529e-04       1.14223608e-04      -1.99425345e-03 
      -1.06521529e-04       1.14223608e-04      -1.99425345e-03 
      -1.06521529e-04       1.14223608e-04      -1.99425345e-03 
      -1.06521529e-04       1.14223608e-04      -1.99425345e-03 
      -4.84260989e-05       6.02866457e-05      -1.17610227e-03 
      -4.84260989e-05       6.02866457e-05      -1.17610227e-03 
      -4.84260989e-05       6.02866457e-05      -1.17610227e-03 
      -4.84260989e-05       6.02866457e-05      -1.17610227e-03 
       9.66933089e-06       6.34968293e-06      -3.57951084e-04 
       9.66933089e-06       6.34968293e-06      -3.57951084e-04 
       9.66933089e-06       6.34968293e-06      -3.57951084e-04 
       9.66933089e-06       6.34968293e-06      -3.57951084e-04 
      -1.05896803e-04      -9.78326476e-05      -1.96636991e-03 
      -1.05896803e-04      -9.78326476e-05      -1.96636991e-03 
      -1.05896803e-04      -9.78326476e-05      -1.96636991e-03 
      -1.05896803e-04      -9.78326476e-05      -1.96636991e-03 
       9.66933089e-06       6.34968293e-06      -3.57951084e-04 
       9.66933089e-06       6.34968293e-06      -3.57951084e-04 
       9.66933089e-06       6.34968293e-06      -3.57951084e-04 
       9.66933089e-06       6.34968293e-06      -3.57951084e-04 
      -1.05896803e-04      -9.78326476e-05      -1.96636991e-03 
      -1.05896803e-04      -9.78326476e-05      -1.96636991e-03 
      -1.05896803e-04      -9.78326476e-05      -1.96636991e-03 
      -1.05896803e-04      -9.78326476e-05      -1.96636991e-03 
      -4.81137360e-05      -4.57414823e-05      -1.16216050e-03 
      -4.81137360e-05      -4.57414823e-05      -1.16216050e-03 
      -4.81137360e-05      -4.57414823e-05      -1.16216050e-03 
      -4.81137360e-05      -4.57414823e-05      -1.16216050e-03 
      -9.83603734e-06       6.34972150e-06      -3.57968617e-04 
      -9.83603734e-06       6.34972150e-06      -3.57968617e-04 
      -9.83603734e-06       6.34972150e-06      -3.57968617e-04 
      -9.83603734e-06       6.34972150e-06      -3.57968617e-04 
       1.06302697e-04       1.14233267e-04      -1.99446243e-03 
       1.06302697e-04       1.14233267e-04      -1.99446243e-03 
       1.06302697e-04       1.14233267e-04      -1.99446243e-03 
       1.06302697e-04       1.14233267e-04      -1.99446243e-03 
      -9.83603734e-06       6.34972150e-06      -3.57968617e-04 
      -9.83603734e-06       6.34972150e-06      -3.57968617e-04 
      -9.83603734e-06       6.34972150e-06      -3.57968617e-04 
      -9.83603734e-06       6.34972150e-06      -3.57968617e-04 
       1.06302697e-04       1.14233267e-04      -1.99446243e-03 
       1.06302697e-04       1.14233267e-04      -1.99446243e-03 
       1.06302697e-04       1.14233267e-04      -1.99446243e-03 
       1.06302697e-04       1.14233267e-04      -1.99446243e-03 
       4.82333296e-05       6.02914942e-05      -1.17621552e-03 
       4.82333296e-05       6.02914942e-05      -1.17621552e-03 
       4.82333296e-05       6.02914942e-05      -1.17621552e-03 
       4.82333296e-05       6.02914942e-05      -1.17621552e-03 
      -9.83603734e-06       6.34972150e-06      -3.57968617e-04 
      -9.83603734e-06       6.34972150e-06      -3.57968617e-04 
      -9.83603734e-06       6.34972150e-06      -3.57968617e-04 
      -9.83603734e-06       6.34972150e-06      -3.57968617e-04 
      -8.33232262e-08       1.62856636e-05      -3.58644146e-04 
      -8.33232262e-08       1.62856636e-05      -3.58644146e-04 