# vtk DataFile Version 2.0
./output/Static_Tower/Static_Tower_0007.vtk
ASCII
DATASET UNSTRUCTURED_GRID

POINTS 13260 float
      -4.335797e+00       4.312524e+00      -9.533710e-03 
      -4.309006e+00       4.315350e+00      -9.533710e-03 
      -4.311003e+00       4.334276e+00       9.533710e-03 
      -4.337794e+00       4.331450e+00       9.533710e-03 
      -3.879701e+00      -1.087617e-02       4.329560e+00 
      -3.852910e+00      -8.049853e-03       4.329560e+00 
      -3.854906e+00       1.087615e-02       4.348627e+00 
      -3.881697e+00       8.049836e-03       4.348627e+00 
      -4.321988e+00       4.310017e+00      -1.348270e-02 
      -4.304456e+00       4.325399e+00       0.000000e+00 
      -4.324812e+00       4.336783e+00       1.348270e-02 
      -4.342344e+00       4.321401e+00       0.000000e+00 
      -3.865892e+00      -1.338271e-02       4.325611e+00 
      -3.848359e+00       1.998497e-03       4.339094e+00 
      -3.868715e+00       1.338270e-02       4.352576e+00 
      -3.886248e+00      -1.998515e-03       4.339094e+00 
      -4.107749e+00       2.150824e+00       2.160013e+00 
      -4.080958e+00       2.153650e+00       2.160013e+00 
      -4.082955e+00       2.172576e+00       2.179081e+00 
      -4.109746e+00       2.169750e+00       2.179081e+00 
       4.309008e+00       4.315346e+00      -9.533437e-03 
       4.335800e+00       4.312527e+00      -9.533437e-03 
       4.337792e+00       4.331454e+00       9.533437e-03 
       4.311000e+00       4.334273e+00       9.533437e-03 
       3.854102e+00      -8.054046e-03       4.329685e+00 
       3.880894e+00      -1.087306e-02       4.329685e+00 
       3.882886e+00       8.054028e-03       4.348752e+00 
       3.856094e+00       1.087305e-02       4.348752e+00 
       4.321992e+00       4.310017e+00      -1.348232e-02 
       4.342345e+00       4.321407e+00       0.000000e+00 
       4.324808e+00       4.336783e+00       1.348232e-02 
       4.304455e+00       4.325393e+00       0.000000e+00 
       3.867086e+00      -1.338348e-02       4.325736e+00 
       3.887439e+00      -1.993356e-03       4.339219e+00 
       3.869902e+00       1.338347e-02       4.352701e+00 
       3.849549e+00       1.993337e-03       4.339219e+00 
       4.081555e+00       2.153646e+00       2.160076e+00 
       4.108347e+00       2.150827e+00       2.160076e+00 
       4.110339e+00       2.169754e+00       2.179143e+00 
       4.083547e+00       2.172573e+00       2.179143e+00 
      -4.309006e+00      -4.315350e+00      -9.533710e-03 
      -4.335797e+00      -4.312524e+00      -9.533710e-03 
      -4.337794e+00      -4.331450e+00       9.533710e-03 
      -4.311003e+00      -4.334276e+00       9.533710e-03 
      -3.852910e+00       8.049836e-03       4.329560e+00 
      -3.879701e+00       1.087615e-02       4.329560e+00 
      -3.881697e+00      -8.049853e-03       4.348627e+00 
      -3.854906e+00      -1.087617e-02       4.348627e+00 
      -4.321988e+00      -4.310017e+00      -1.348270e-02 
      -4.342344e+00      -4.321401e+00       0.000000e+00 
      -4.324812e+00      -4.336783e+00       1.348270e-02 
      -4.304456e+00      -4.325399e+00       0.000000e+00 
      -3.865892e+00       1.338270e-02       4.325611e+00 
      -3.886248e+00       1.998497e-03       4.339094e+00 
      -3.868715e+00      -1.338271e-02       4.352576e+00 
      -3.848359e+00      -1.998515e-03       4.339094e+00 
      -4.080958e+00      -2.153650e+00       2.160013e+00 
      -4.107749e+00      -2.150824e+00       2.160013e+00 
      -4.109746e+00      -2.169750e+00       2.179081e+00 
      -4.082955e+00      -2.172576e+00       2.179081e+00 
      -4.315348e+00       4.309007e+00      -9.534204e-03 
      -4.312526e+00       4.335799e+00      -9.534204e-03 
      -4.331452e+00       4.337793e+00       9.534204e-03 
      -4.334274e+00       4.311001e+00       9.534204e-03 
       8.630799e-03       3.853506e+00       4.329622e+00 
       1.145309e-02       3.880298e+00       4.329622e+00 
      -7.472228e-03       3.882291e+00       4.348690e+00 
      -1.029452e-02       3.855500e+00       4.348690e+00 
      -4.310018e+00       4.321990e+00      -1.348340e-02 
      -4.321404e+00       4.342344e+00       0.000000e+00 
      -4.336782e+00       4.324810e+00       1.348340e-02 
      -4.325396e+00       4.304456e+00       0.000000e+00 
       1.396151e-02       3.866489e+00       4.325673e+00 
       2.574948e-03       3.886843e+00       4.339156e+00 
      -1.280294e-02       3.869309e+00       4.352639e+00 
      -1.416376e-03       3.848954e+00       4.339156e+00 
      -2.153359e+00       4.081257e+00       2.160044e+00 
      -2.150537e+00       4.108048e+00       2.160044e+00 
      -2.169462e+00       4.110042e+00       2.179112e+00 
      -2.172284e+00       4.083251e+00       2.179112e+00 
      -4.312526e+00      -4.335799e+00      -9.534204e-03 
      -4.315348e+00      -4.309007e+00      -9.534204e-03 
      -4.334274e+00      -4.311001e+00       9.534204e-03 
      -4.331452e+00      -4.337793e+00       9.534204e-03 
       1.145309e-02      -3.880298e+00       4.329622e+00 
       8.630799e-03      -3.853506e+00       4.329622e+00 
      -1.029452e-02      -3.855500e+00       4.348690e+00 
      -7.472228e-03      -3.882291e+00       4.348690e+00 
      -4.310018e+00      -4.321990e+00      -1.348340e-02 
      -4.325396e+00      -4.304456e+00       0.000000e+00 
      -4.336782e+00      -4.324810e+00       1.348340e-02 
      -4.321404e+00      -4.342344e+00       0.000000e+00 
       1.396151e-02      -3.866489e+00       4.325673e+00 
      -1.416376e-03      -3.848954e+00       4.339156e+00 
      -1.280294e-02      -3.869309e+00       4.352639e+00 
       2.574947e-03      -3.886843e+00       4.339156e+00 
      -2.150537e+00      -4.108048e+00       2.160044e+00 
      -2.153359e+00      -4.081257e+00       2.160044e+00 
      -2.172284e+00      -4.083251e+00       2.179112e+00 
      -2.169462e+00      -4.110042e+00       2.179112e+00 
       4.312525e+00       4.335798e+00      -9.532943e-03 
       4.315348e+00       4.309007e+00      -9.532943e-03 
       4.334275e+00       4.311002e+00       9.532943e-03 
       4.331452e+00       4.337793e+00       9.532943e-03 
      -1.029612e-02       3.880297e+00       4.329623e+00 
      -7.473082e-03       3.853506e+00       4.329623e+00 
       1.145469e-02       3.855500e+00       4.348689e+00 
       8.631654e-03       3.882292e+00       4.348689e+00 
       4.310016e+00       4.321990e+00      -1.348162e-02 
       4.325396e+00       4.304456e+00       0.000000e+00 
       4.336784e+00       4.324810e+00       1.348162e-02 
       4.321404e+00       4.342344e+00       0.000000e+00 
      -1.280467e-02       3.866489e+00       4.325674e+00 
       2.575477e-03       3.848954e+00       4.339156e+00 
       1.396324e-02       3.869309e+00       4.352638e+00 
      -1.416905e-03       3.886843e+00       4.339156e+00 
       2.151114e+00       4.108048e+00       2.160045e+00 
       2.153937e+00       4.081256e+00       2.160045e+00 
       2.172865e+00       4.083251e+00       2.179111e+00 
       2.170042e+00       4.110042e+00       2.179111e+00 
       4.335800e+00      -4.312527e+00      -9.533437e-03 
       4.309008e+00      -4.315346e+00      -9.533437e-03 
       4.311000e+00      -4.334273e+00       9.533437e-03 
       4.337792e+00      -4.331454e+00       9.533437e-03 
       3.880894e+00       1.087305e-02       4.329685e+00 
       3.854102e+00       8.054028e-03       4.329685e+00 
       3.856094e+00      -1.087306e-02       4.348752e+00 
       3.882886e+00      -8.054046e-03       4.348752e+00 
       4.321992e+00      -4.310017e+00      -1.348232e-02 
       4.304455e+00      -4.325393e+00       0.000000e+00 
       4.324808e+00      -4.336783e+00       1.348232e-02 
       4.342345e+00      -4.321407e+00       0.000000e+00 
       3.867086e+00       1.338347e-02       4.325736e+00 
       3.849549e+00      -1.993356e-03       4.339219e+00 
       3.869902e+00      -1.338348e-02       4.352701e+00 
       3.887439e+00       1.993337e-03       4.339219e+00 
       4.108347e+00      -2.150827e+00       2.160076e+00 
       4.081555e+00      -2.153646e+00       2.160076e+00 
       4.083547e+00      -2.172573e+00       2.179143e+00 
       4.110339e+00      -2.169754e+00       2.179143e+00 
       4.315348e+00      -4.309007e+00      -9.532943e-03 
       4.312525e+00      -4.335798e+00      -9.532943e-03 
       4.331452e+00      -4.337793e+00       9.532943e-03 
       4.334275e+00      -4.311002e+00       9.532943e-03 
      -7.473083e-03      -3.853506e+00       4.329623e+00 
      -1.029612e-02      -3.880297e+00       4.329623e+00 
       8.631654e-03      -3.882292e+00       4.348689e+00 
       1.145469e-02      -3.855500e+00       4.348689e+00 
       4.310016e+00      -4.321990e+00      -1.348162e-02 
       4.321404e+00      -4.342344e+00       0.000000e+00 
       4.336784e+00      -4.324810e+00       1.348162e-02 
       4.325396e+00      -4.304456e+00       0.000000e+00 
      -1.280467e-02      -3.866489e+00       4.325674e+00 
      -1.416905e-03      -3.886843e+00       4.339156e+00 
       1.396324e-02      -3.869309e+00       4.352638e+00 
       2.575476e-03      -3.848954e+00       4.339156e+00 
       2.153937e+00      -4.081257e+00       2.160045e+00 
       2.151114e+00      -4.108048e+00       2.160045e+00 
       2.170042e+00      -4.110042e+00       2.179111e+00 
       2.172865e+00      -4.083251e+00       2.179111e+00 
      -4.290298e+00      -4.323607e+00      -3.457919e-03 
      -4.323555e+00      -4.290298e+00      -3.457919e-03 
      -4.356502e+00      -4.323193e+00       3.457919e-03 
      -4.323245e+00      -4.356502e+00       3.457919e-03 
      -3.834060e+00      -3.868085e+00       4.336759e+00 
      -3.867316e+00      -3.834776e+00       4.336759e+00 
      -3.900263e+00      -3.867672e+00       4.343674e+00 
[...]
POINT_DATA     13260 
VECTORS Displacements float
       0.00000000e+00       0.00000000e+00       0.00000000e+00 
       0.00000000e+00       0.00000000e+00       0.00000000e+00 
       0.00000000e+00       0.00000000e+00       0.00000000e+00 
       0.00000000e+00       0.00000000e+00       0.00000000e+00 
       5.96476689e-04      -8.73966653e-09      -1.06339457e-04 
       5.96476689e-04      -8.73966653e-09      -1.06339457e-04 
       5.96476689e-04      -8.73966653e-09      -1.06339457e-04 
       5.96476689e-04      -8.73966653e-09      -1.06339457e-04 
       0.00000000e+00       0.00000000e+00       0.00000000e+00 
       0.00000000e+00       0.00000000e+00       0.00000000e+00 
       0.00000000e+00       0.00000000e+00       0.00000000e+00 
       0.00000000e+00       0.00000000e+00       0.00000000e+00 
       5.96476689e-04      -8.73966653e-09      -1.06339457e-04 
       5.96476689e-04      -8.73966653e-09      -1.06339457e-04 
       5.96476689e-04      -8.73966653e-09      -1.06339457e-04 
       5.96476689e-04      -8.73966653e-09      -1.06339457e-04 
       2.98238345e-04      -4.36983326e-09      -5.31697284e-05 
       2.98238345e-04      -4.36983326e-09      -5.31697284e-05 
       2.98238345e-04      -4.36983326e-09      -5.31697284e-05 
       2.98238345e-04      -4.36983326e-09      -5.31697284e-05 
       0.00000000e+00       0.00000000e+00       0.00000000e+00 
       0.00000000e+00       0.00000000e+00       0.00000000e+00 
       0.00000000e+00       0.00000000e+00       0.00000000e+00 
       0.00000000e+00       0.00000000e+00       0.00000000e+00 
       5.94094339e-04      -9.12991113e-09       1.86162390e-05 
       5.94094339e-04      -9.12991113e-09       1.86162390e-05 
       5.94094339e-04      -9.12991113e-09       1.86162390e-05 
       5.94094339e-04      -9.12991113e-09       1.86162390e-05 
       0.00000000e+00       0.00000000e+00       0.00000000e+00 
       0.00000000e+00       0.00000000e+00       0.00000000e+00 
       0.00000000e+00       0.00000000e+00       0.00000000e+00 
       0.00000000e+00       0.00000000e+00       0.00000000e+00 
       5.94094339e-04      -9.12991113e-09       1.86162390e-05 
       5.94094339e-04      -9.12991113e-09       1.86162390e-05 
       5.94094339e-04      -9.12991113e-09       1.86162390e-05 
       5.94094339e-04      -9.12991113e-09       1.86162390e-05 
       2.97047170e-04      -4.56495557e-09       9.30811952e-06 
       2.97047170e-04      -4.56495557e-09       9.30811952e-06 
       2.97047170e-04      -4.56495557e-09       9.30811952e-06 
       2.97047170e-04      -4.56495557e-09       9.30811952e-06 
       0.00000000e+00       0.00000000e+00       0.00000000e+00 
       0.00000000e+00       0.00000000e+00       0.00000000e+00 
       0.00000000e+00       0.00000000e+00       0.00000000e+00 
       0.00000000e+00       0.00000000e+00       0.00000000e+00 
       5.96476689e-04      -8.73966653e-09      -1.06339457e-04 
       5.96476689e-04      -8.73966653e-09      -1.06339457e-04 
       5.96476689e-04      -8.73966653e-09      -1.06339457e-04 
       5.96476689e-04      -8.73966653e-09      -1.06339457e-04 
       0.00000000e+00       0.00000000e+00       0.00000000e+00 
       0.00000000e+00       0.00000000e+00       0.00000000e+00 
       0.00000000e+00       0.00000000e+00       0.00000000e+00 
       0.00000000e+00       0.00000000e+00       0.00000000e+00 
       5.96476689e-04      -8.73966653e-09      -1.06339457e-04 
       5.96476689e-04      -8.73966653e-09      -1.06339457e-04 
       5.96476689e-04      -8.73966653e-09      -1.06339457e-04 
       5.96476689e-04      -8.73966653e-09      -1.06339457e-04 
       2.98238345e-04      -4.36983326e-09      -5.31697284e-05 
       2.98238345e-04      -4.36983326e-09      -5.31697284e-05 
       2.98238345e-04      -4.36983326e-09      -5.31697284e-05 
       2.98238345e-04      -4.36983326e-09      -5.31697284e-05 
       0.00000000e+00       0.00000000e+00       0.00000000e+00 
       0.00000000e+00       0.00000000e+00       0.00000000e+00 
       0.00000000e+00       0.00000000e+00       0.00000000e+00 
       0.00000000e+00       0.00000000e+00       0.00000000e+00 
       5.79285924e-04      -1.20810510e-06      -4.39366413e-05 
       5.79285924e-04      -1.20810510e-06      -4.39366413e-05 
       5.79285924e-04      -1.20810510e-06      -4.39366413e-05 
       5.79285924e-04      -1.20810510e-06      -4.39366413e-05 
       0.00000000e+00       0.00000000e+00       0.00000000e+00 
       0.00000000e+00       0.00000000e+00       0.00000000e+00 
       0.00000000e+00       0.00000000e+00       0.00000000e+00 
       0.00000000e+00       0.00000000e+00       0.00000000e+00 
       5.79285924e-04      -1.20810510e-06      -4.39366413e-05 
       5.79285924e-04      -1.20810510e-06      -4.39366413e-05 
       5.79285924e-04      -1.20810510e-06      -4.39366413e-05 
       5.79285924e-04      -1.20810510e-06      -4.39366413e-05 
       2.89642962e-04      -6.04052551e-07      -2.19683206e-05 
       2.89642962e-04      -6.04052551e-07      -2.19683206e-05 
       2.89642962e-04      -6.04052551e-07      -2.19683206e-05 
       2.89642962e-04      -6.04052551e-07      -2.19683206e-05 
       0.00000000e+00       0.00000000e+00       0.00000000e+00 
       0.00000000e+00       0.00000000e+00       0.00000000e+00 
       0.00000000e+00       0.00000000e+00       0.00000000e+00 
       0.00000000e+00       0.00000000e+00       0.00000000e+00 
       5.79285581e-04       1.19023523e-06      -4.39347650e-05 
       5.79285581e-04       1.19023523e-06      -4.39347650e-05 
       5.79285581e-04       1.19023523e-06      -4.39347650e-05 
       5.79285581e-04       1.19023523e-06      -4.39347650e-05 
       0.00000000e+00       0.00000000e+00       0.00000000e+00 
       0.00000000e+00       0.00000000e+00       0.00000000e+00 
       0.00000000e+00       0.00000000e+00       0.00000000e+00 
       0.00000000e+00       0.00000000e+00       0.00000000e+00 
       5.79285581e-04       1.19023523e-06      -4.39347650e-05 
       5.79285581e-04       1.19023523e-06      -4.39347650e-05 
       5.79285581e-04       1.19023523e-06      -4.39347650e-05 
       5.79285581e-04       1.19023523e-06      -4.39347650e-05 
       2.89642790e-04       5.95117614e-07      -2.19673825e-05 
       2.89642790e-04       5.95117614e-07      -2.19673825e-05 
       2.89642790e-04       5.95117614e-07      -2.19673825e-05 
       2.89642790e-04       5.95117614e-07      -2.19673825e-05 
       0.00000000e+00       0.00000000e+00       0.00000000e+00 
       0.00000000e+00       0.00000000e+00       0.00000000e+00 
       0.00000000e+00       0.00000000e+00       0.00000000e+00 
       0.00000000e+00       0.00000000e+00       0.00000000e+00 
       5.79285924e-04      -1.20810510e-06      -4.39366413e-05 
       5.79285924e-04      -1.20810510e-06      -4.39366413e-05 
       5.79285924e-04      -1.20810510e-06      -4.39366413e-05 
       5.79285924e-04      -1.20810510e-06      -4.39366413e-05 
       0.00000000e+00       0.00000000e+00       0.00000000e+00 
       0.00000000e+00       0.00000000e+00       0.00000000e+00 
       0.00000000e+00       0.00000000e+00       0.00000000e+00 
       0.00000000e+00       0.00000000e+00       0.00000000e+00 
       5.79285924e-04      -1.20810510e-06      -4.39366413e-05 
       5.79285924e-04      -1.20810510e-06      -4.39366413e-05 
       5.79285924e-04      -1.20810510e-06      -4.39366413e-05 
       5.79285924e-04      -1.20810510e-06      -4.39366413e-05 
       2.89642962e-04      -6.04052551e-07      -2.19683206e-05 
       2.89642962e-04      -6.04052551e-07      -2.19683206e-05 
       2.89642962e-04      -6.04052551e-07      -2.19683206e-05 
       2.89642962e-04      -6.04052551e-07      -2.19683206e-05 
       0.00000000e+00       0.00000000e+00       0.00000000e+00 
       0.00000000e+00       0.00000000e+00       0.00000000e+00 
       0.00000000e+00       0.00000000e+00       0.00000000e+00 
       0.00000000e+00       0.00000000e+00       0.00000000e+00 
       5.94094339e-04      -9.12991113e-09       1.86162390e-05 
       5.94094339e-04      -9.12991113e-09       1.86162390e-05 
       5.94094339e-04      -9.12991113e-09       1.86162390e-05 
       5.94094339e-04      -9.12991113e-09       1.86162390e-05 
       0.00000000e+00       0.00000000e+00       0.00000000e+00 
       0.00000000e+00       0.00000000e+00       0.00000000e+00 
       0.00000000e+00       0.00000000e+00       0.00000000e+00 
       0.00000000e+00       0.00000000e+00       0.00000000e+00 
       5.94094339e-04      -9.12991113e-09       1.86162390e-05 
       5.94094339e-04      -9.12991113e-09       1.86162390e-05 
       5.94094339e-04      -9.12991113e-09       1.86162390e-05 
       5.94094339e-04      -9.12991113e-09       1.86162390e-05 
       2.97047170e-04      -4.56495557e-09       9.30811952e-06 
       2.97047170e-04      -4.56495557e-09       9.30811952e-06 
       2.97047170e-04      -4.56495557e-09       9.30811952e-06 
       2.97047170e-04      -4.56495557e-09       9.30811952e-06 
       0.00000000e+00       0.00000000e+00       0.00000000e+00 
       0.00000000e+00       0.00000000e+00       0.00000000e+00 
       0.00000000e+00       0.00000000e+00       0.00000000e+00 
       0.00000000e+00       0.00000000e+00       0.00000000e+00 
       5.79285581e-04       1.19023523e-06      -4.39347650e-05 
       5.79285581e-04       1.19023523e-06      -4.39347650e-05 
       5.79285581e-04       1.19023523e-06      -4.39347650e-05 
       5.79285581e-04       1.19023523e-06      -4.39347650e-05 
       0.00000000e+00       0.00000000e+00       0.00000000e+00 
       0.00000000e+00       0.00000000e+00       0.00000000e+00 
       0.00000000e+00       0.00000000e+00       0.00000000e+00 
       0.00000000e+00       0.00000000e+00       0.00000000e+00 
       5.79285581e-04       1.19023523e-06      -4.39347650e-05 
       5.79285581e-04       1.19023523e-06      -4.39347650e-05 
       5.79285581e-04       1.19023523e-06      -4.39347650e-05 
       5.79285581e-04       1.19023523e-06      -4.39347650e-05 
       2.89642790e-04       5.95117614e-07      -2.19673825e-05 
       2.89642790e-04       5.95117614e-07      -2.19673825e-05 
       2.89642790e-04       5.95117614e-07      -2.19673825e-05 
       2.89642790e-04       5.95117614e-07      -2.19673825e-05 
       0.00000000e+00       0.00000000e+00       0.00000000e+00 
       0.00000000e+00       0.00000000e+00       0.00000000e+00 
       0.00000000e+00       0.00000000e+00       0.00000000e+00 
       0.00000000e+00       0.00000000e+00       0.00000000e+00 
       7.38495907e-04       2.17374752e-05       1.01656751e-03 
       7.38495907e-04       2.17374752e-05       1.01656751e-03 
       7.38495907e-04       2.17374752e-05       1.01656751e-03 
       7.38495907e-04       2.17374752e-05       1.01656751e-03 
       0.00000000e+00       0.00000000e+00       0.00000000e+00 
       0.00000000e+00       0.00000000e+00       0.00000000e+00 
       0.00000000e+00       0.00000000e+00       0.00000000e+00 
       0.00000000e+00       0.00000000e+00       0.00000000e+00 
       7.38495907e-04       2.17374752e-05       1.01656751e-03 
       7.38495907e-04       2.17374752e-05       1.01656751e-03 
       7.38495907e-04       2.17374752e-05       1.01656751e-03 
       7.38495907e-04       2.17374752e-05       1.01656751e-03 
       3.69247953e-04       1.08687376e-05       5.08283754e-04 
       3.69247953e-04       1.08687376e-05       5.08283754e-04 
       3.69247953e-04       1.08687376e-05       5.08283754e-04 
       3.69247953e-04       1.08687376e-05       5.08283754e-04 
       0.00000000e+00       0.00000000e+00       0.00000000e+00 
       0.00000000e+00       0.00000000e+00       0.00000000e+00 
       0.00000000e+00       0.00000000e+00       0.00000000e+00 
       0.00000000e+00       0.00000000e+00       0.00000000e+00 
       7.58830958e-04      -3.98153799e-05      -1.35829465e-03 
       7.58830958e-04      -3.98153799e-05      -1.35829465e-03 
       7.58830958e-04      -3.98153799e-05      -1.35829465e-03 
       7.58830958e-04      -3.98153799e-05      -1.35829465e-03 
       0.00000000e+00       0.00000000e+00       0.00000000e+00 
       0.00000000e+00       0.00000000e+00       0.00000000e+00 
       0.00000000e+00       0.00000000e+00       0.00000000e+00 
       0.00000000e+00       0.00000000e+00       0.00000000e+00 
       7.58830958e-04      -3.98153799e-05      -1.35829465e-03 
       7.58830958e-04      -3.98153799e-05      -1.35829465e-03 
       7.58830958e-04      -3.98153799e-05      -1.35829465e-03 
       7.58830958e-04      -3.98153799e-05      -1.35829465e-03 
       3.79415479e-04      -1.99076900e-05      -6.79147325e-04 
       3.79415479e-04      -1.99076900e-05      -6.79147325e-04 
       3.79415479e-04      -1.99076900e-05      -6.79147325e-04 
       3.79415479e-04      -1.99076900e-05      -6.79147325e-04 
       0.00000000e+00       0.00000000e+00       0.00000000e+00 
       0.00000000e+00       0.00000000e+00       0.00000000e+00 
       0.00000000e+00       0.00000000e+00       0.00000000e+00 
       0.00000000e+00       0.00000000e+00       0.00000000e+00 
       7.58832477e-04       3.97913985e-05      -1.35831718e-03 
       7.58832477e-04       3.97913985e-05      -1.35831718e-03 
       7.58832477e-04       3.97913985e-05      -1.35831718e-03 
       7.58832477e-04       3.97913985e-05      -1.35831718e-03 
       0.00000000e+00       0.00000000e+00       0.00000000e+00 
       0.00000000e+00       0.00000000e+00       0.00000000e+00 
       0.00000000e+00       0.00000000e+00       0.00000000e+00 
       0.00000000e+00       0.00000000e+00       0.00000000e+00 
       7.58832477e-04       3.97913985e-05      -1.35831718e-03 
       7.58832477e-04       3.97913985e-05      -1.35831718e-03 
       7.58832477e-04       3.97913985e-05      -1.35831718e-03 
       7.58832477e-04       3.97913985e-05      -1.35831718e-03 
       3.79416239e-04       1.98956992e-05      -6.79158588e-04 
       3.79416239e-04       1.98956992e-05      -6.79158588e-04 
       3.79416239e-04       1.98956992e-05      -6.79158588e-04 
       3.79416239e-04       1.98956992e-05      -6.79158588e-04 
       0.00000000e+00       0.00000000e+00       0.00000000e+00 
       0.00000000e+00       0.00000000e+00       0.00000000e+00 
       0.00000000e+00       0.00000000e+00       0.00000000e+00 
       0.00000000e+00       0.00000000e+00       0.00000000e+00 
       7.38495240e-04      -2.17603843e-05       1.01654503e-03 
       7.38495240e-04      -2.17603843e-05       1.01654503e-03 
       7.38495240e-04      -2.17603843e-05       1.01654503e-03 
       7.38495240e-04      -2.17603843e-05       1.01654503e-03 
       0.00000000e+00       0.00000000e+00       0.00000000e+00 
       0.00000000e+00       0.00000000e+00       0.00000000e+00 
       0.00000000e+00       0.00000000e+00       0.00000000e+00 
       0.00000000e+00       0.00000000e+00       0.00000000e+00 
       7.38495240e-04      -2.17603843e-05       1.01654503e-03 
       7.38495240e-04      -2.17603843e-05       1.01654503e-03 
       7.38495240e-04      -2.17603843e-05       1.01654503e-03 
       7.38495240e-04      -2.17603843e-05       1.01654503e-03 
       3.69247620e-04      -1.08801921e-05       5.08272517e-04 
       3.69247620e-04      -1.08801921e-05       5.08272517e-04 
       3.69247620e-04      -1.08801921e-05       5.08272517e-04 
       3.69247620e-04      -1.08801921e-05       5.08272517e-04 
       5.96476689e-04      -8.73966653e-09      -1.06339457e-04 
       5.96476689e-04      -8.73966653e-09      -1.06339457e-04 
       5.96476689e-04      -8.73966653e-09      -1.06339457e-04 
       5.96476689e-04      -8.73966653e-09      -1.06339457e-04 
       7.38495240e-04      -2.17603843e-05       1.01654503e-03 
       7.38495240e-04      -2.17603843e-05       1.01654503e-03 
       7.38495240e-04      -2.17603843e-05       1.01654503e-03 
       7.38495240e-04      -2.17603843e-05       1.01654503e-03 
       5.96476689e-04      -8.73966653e-09      -1.06339457e-04 
       5.96476689e-04      -8.73966653e-09      -1.06339457e-04 
       5.96476689e-04      -8.73966653e-09      -1.06339457e-04 
       5.96476689e-04      -8.73966653e-09      -1.06339457e-04 
       7.38495240e-04      -2.17603843e-05       1.01654503e-03 
       7.38495240e-04      -2.17603843e-05       1.01654503e-03 
       7.38495240e-04      -2.17603843e-05       1.01654503e-03 
       7.38495240e-04      -2.17603843e-05       1.01654503e-03 
       6.67485965e-04      -1.08845620e-05       4.55102788e-04 
       6.67485965e-04      -1.08845620e-05       4.55102788e-04 
       6.67485965e-04      -1.08845620e-05       4.55102788e-04 
       6.67485965e-04      -1.08845620e-05       4.55102788e-04 
       5.96476689e-04      -8.73966653e-09      -1.06339457e-04 
       5.96476689e-04      -8.73966653e-09      -1.06339457e-04 
       5.96476689e-04      -8.73966653e-09      -1.06339457e-04 
       5.96476689e-04      -8.73966653e-09      -1.06339457e-04 
       7.38495907e-04       2.17374752e-05       1.01656751e-03 
       7.38495907e-04       2.17374752e-05       1.01656751e-03 
       7.38495907e-04       2.17374752e-05       1.01656751e-03 
       7.38495907e-04       2.17374752e-05       1.01656751e-03 
       5.96476689e-04      -8.73966653e-09      -1.06339457e-04 
       5.96476689e-04      -8.73966653e-09      -1.06339457e-04 
       5.96476689e-04      -8.73966653e-09      -1.06339457e-04 
       5.96476689e-04      -8.73966653e-09      -1.06339457e-04 
       7.38495907e-04       2.17374752e-05       1.01656751e-03 
       7.38495907e-04       2.17374752e-05       1.01656751e-03 
       7.38495907e-04       2.17374752e-05       1.01656751e-03 
       7.38495907e-04       2.17374752e-05       1.01656751e-03 
       6.67486298e-04       1.08643677e-05       4.55114025e-04 
       6.67486298e-04       1.08643677e-05       4.55114025e-04 
       6.67486298e-04       1.08643677e-05       4.55114025e-04 
       6.67486298e-04       1.08643677e-05       4.55114025e-04 
       5.94094339e-04      -9.12991113e-09       1.86162390e-05 
       5.94094339e-04      -9.12991113e-09       1.86162390e-05 
       5.94094339e-04      -9.12991113e-09       1.86162390e-05 
       5.94094339e-04      -9.12991113e-09       1.86162390e-05 
       7.58832477e-04       3.97913985e-05      -1.35831718e-03 
       7.58832477e-04       3.97913985e-05      -1.35831718e-03 
       7.58832477e-04       3.97913985e-05      -1.35831718e-03 
       7.58832477e-04       3.97913985e-05      -1.35831718e-03 
       5.94094339e-04      -9.12991113e-09       1.86162390e-05 
       5.94094339e-04      -9.12991113e-09       1.86162390e-05 
       5.94094339e-04      -9.12991113e-09       1.86162390e-05 
       5.94094339e-04      -9.12991113e-09       1.86162390e-05 
       7.58832477e-04       3.97913985e-05      -1.35831718e-03 
       7.58832477e-04       3.97913985e-05      -1.35831718e-03 
       7.58832477e-04       3.97913985e-05      -1.35831718e-03 
       7.58832477e-04       3.97913985e-05      -1.35831718e-03 
       6.76463408e-04       1.98911343e-05      -6.69850469e-04 
       6.76463408e-04       1.98911343e-05      -6.69850469e-04 
       6.76463408e-04       1.98911343e-05      -6.69850469e-04 
       6.76463408e-04       1.98911343e-05      -6.69850469e-04 
       5.94094339e-04      -9.12991113e-09       1.86162390e-05 
       5.94094339e-04      -9.12991113e-09       1.86162390e-05 
       5.94094339e-04      -9.12991113e-09       1.86162390e-05 
       5.94094339e-04      -9.12991113e-09       1.86162390e-05 
       5.79285581e-04       1.19023523e-06      -4.39347650e-05 
       5.79285581e-04       1.19023523e-06      -4.39347650e-05 