# vtk DataFile Version 2.0
./output/Static_Tower/Static_Tower_0002.vtk
ASCII
DATASET UNSTRUCTURED_GRID

POINTS 13260 float
      -4.335798e+00       4.312525e+00      -9.533613e-03 
      -4.309007e+00       4.315349e+00      -9.533613e-03 
      -4.311002e+00       4.334275e+00       9.533613e-03 
      -4.337793e+00       4.331451e+00       9.533613e-03 
      -3.880127e+00      -1.087506e-02       4.329605e+00 
      -3.853336e+00      -8.051351e-03       4.329605e+00 
      -3.855330e+00       1.087504e-02       4.348672e+00 
      -3.882122e+00       8.051333e-03       4.348672e+00 
      -4.321989e+00       4.310017e+00      -1.348256e-02 
      -4.304456e+00       4.325397e+00       0.000000e+00 
      -4.324811e+00       4.336783e+00       1.348256e-02 
      -4.342344e+00       4.321403e+00       0.000000e+00 
      -3.866318e+00      -1.338299e-02       4.325656e+00 
      -3.848784e+00       1.996654e-03       4.339138e+00 
      -3.869139e+00       1.338297e-02       4.352621e+00 
      -3.886673e+00      -1.996672e-03       4.339138e+00 
      -4.107963e+00       2.150825e+00       2.160036e+00 
      -4.081171e+00       2.153649e+00       2.160036e+00 
      -4.083166e+00       2.172575e+00       2.179103e+00 
      -4.109957e+00       2.169751e+00       2.179103e+00 
       4.309008e+00       4.315347e+00      -9.533534e-03 
       4.335799e+00       4.312526e+00      -9.533534e-03 
       4.337792e+00       4.331453e+00       9.533534e-03 
       4.311001e+00       4.334274e+00       9.533534e-03 
       3.853676e+00      -8.052549e-03       4.329641e+00 
       3.880468e+00      -1.087417e-02       4.329641e+00 
       3.882461e+00       8.052531e-03       4.348708e+00 
       3.855670e+00       1.087415e-02       4.348708e+00 
       4.321991e+00       4.310017e+00      -1.348245e-02 
       4.342344e+00       4.321405e+00       0.000000e+00 
       4.324809e+00       4.336783e+00       1.348245e-02 
       4.304456e+00       4.325395e+00       0.000000e+00 
       3.866659e+00      -1.338321e-02       4.325692e+00 
       3.887013e+00      -1.995198e-03       4.339174e+00 
       3.869478e+00       1.338319e-02       4.352657e+00 
       3.849124e+00       1.995180e-03       4.339174e+00 
       4.081342e+00       2.153647e+00       2.160053e+00 
       4.108134e+00       2.150826e+00       2.160053e+00 
       4.110127e+00       2.169753e+00       2.179121e+00 
       4.083335e+00       2.172574e+00       2.179121e+00 
      -4.309007e+00      -4.315349e+00      -9.533613e-03 
      -4.335798e+00      -4.312525e+00      -9.533613e-03 
      -4.337793e+00      -4.331451e+00       9.533613e-03 
      -4.311002e+00      -4.334275e+00       9.533613e-03 
      -3.853336e+00       8.051333e-03       4.329605e+00 
      -3.880127e+00       1.087504e-02       4.329605e+00 
      -3.882122e+00      -8.051351e-03       4.348672e+00 
      -3.855330e+00      -1.087506e-02       4.348672e+00 
      -4.321989e+00      -4.310017e+00      -1.348256e-02 
      -4.342344e+00      -4.321403e+00       0.000000e+00 
      -4.324811e+00      -4.336783e+00       1.348256e-02 
      -4.304456e+00      -4.325397e+00       0.000000e+00 
      -3.866318e+00       1.338297e-02       4.325656e+00 
      -3.886673e+00       1.996655e-03       4.339138e+00 
      -3.869139e+00      -1.338299e-02       4.352621e+00 
      -3.848784e+00      -1.996672e-03       4.339138e+00 
      -4.081171e+00      -2.153649e+00       2.160036e+00 
      -4.107963e+00      -2.150825e+00       2.160036e+00 
      -4.109957e+00      -2.169751e+00       2.179103e+00 
      -4.083166e+00      -2.172575e+00       2.179103e+00 
      -4.315348e+00       4.309007e+00      -9.533754e-03 
      -4.312526e+00       4.335799e+00      -9.533754e-03 
      -4.331452e+00       4.337793e+00       9.533754e-03 
      -4.334274e+00       4.311001e+00       9.533754e-03 
       8.217323e-03       3.853506e+00       4.329622e+00 
       1.103988e-02       3.880298e+00       4.329622e+00 
      -7.886315e-03       3.882291e+00       4.348690e+00 
      -1.070887e-02       3.855500e+00       4.348690e+00 
      -4.310017e+00       4.321990e+00      -1.348276e-02 
      -4.321404e+00       4.342344e+00       0.000000e+00 
      -4.336783e+00       4.324810e+00       1.348276e-02 
      -4.325396e+00       4.304456e+00       0.000000e+00 
       1.354835e-02       3.866489e+00       4.325673e+00 
       2.161355e-03       3.886843e+00       4.339156e+00 
      -1.321734e-02       3.869309e+00       4.352639e+00 
      -1.830347e-03       3.848954e+00       4.339156e+00 
      -2.153565e+00       4.081257e+00       2.160044e+00 
      -2.150743e+00       4.108048e+00       2.160044e+00 
      -2.169669e+00       4.110042e+00       2.179112e+00 
      -2.172492e+00       4.083251e+00       2.179112e+00 
      -4.312526e+00      -4.335799e+00      -9.533754e-03 
      -4.315348e+00      -4.309007e+00      -9.533754e-03 
      -4.334274e+00      -4.311001e+00       9.533754e-03 
      -4.331452e+00      -4.337793e+00       9.533754e-03 
       1.103988e-02      -3.880298e+00       4.329622e+00 
       8.217323e-03      -3.853506e+00       4.329622e+00 
      -1.070887e-02      -3.855500e+00       4.348690e+00 
      -7.886315e-03      -3.882291e+00       4.348690e+00 
      -4.310017e+00      -4.321990e+00      -1.348276e-02 
      -4.325396e+00      -4.304456e+00       0.000000e+00 
      -4.336783e+00      -4.324810e+00       1.348276e-02 
      -4.321404e+00      -4.342344e+00       0.000000e+00 
       1.354835e-02      -3.866489e+00       4.325673e+00 
      -1.830347e-03      -3.848954e+00       4.339156e+00 
      -1.321734e-02      -3.869309e+00       4.352639e+00 
       2.161354e-03      -3.886843e+00       4.339156e+00 
      -2.150743e+00      -4.108048e+00       2.160044e+00 
      -2.153565e+00      -4.081257e+00       2.160044e+00 
      -2.172492e+00      -4.083251e+00       2.179112e+00 
      -2.169669e+00      -4.110042e+00       2.179112e+00 
       4.312525e+00       4.335799e+00      -9.533393e-03 
       4.315348e+00       4.309007e+00      -9.533393e-03 
       4.334275e+00       4.311001e+00       9.533393e-03 
       4.331452e+00       4.337793e+00       9.533393e-03 
      -1.070933e-02       3.880297e+00       4.329623e+00 
      -7.886559e-03       3.853506e+00       4.329623e+00 
       1.104034e-02       3.855500e+00       4.348690e+00 
       8.217567e-03       3.882292e+00       4.348690e+00 
       4.310017e+00       4.321990e+00      -1.348225e-02 
       4.325396e+00       4.304456e+00       0.000000e+00 
       4.336783e+00       4.324810e+00       1.348225e-02 
       4.321404e+00       4.342344e+00       0.000000e+00 
      -1.321783e-02       3.866489e+00       4.325674e+00 
       2.161506e-03       3.848954e+00       4.339156e+00 
       1.354884e-02       3.869309e+00       4.352638e+00 
      -1.830498e-03       3.886843e+00       4.339156e+00 
       2.150908e+00       4.108048e+00       2.160045e+00 
       2.153731e+00       4.081257e+00       2.160045e+00 
       2.172658e+00       4.083251e+00       2.179111e+00 
       2.169835e+00       4.110042e+00       2.179111e+00 
       4.335799e+00      -4.312526e+00      -9.533534e-03 
       4.309008e+00      -4.315347e+00      -9.533534e-03 
       4.311001e+00      -4.334274e+00       9.533534e-03 
       4.337792e+00      -4.331453e+00       9.533534e-03 
       3.880468e+00       1.087415e-02       4.329641e+00 
       3.853676e+00       8.052531e-03       4.329641e+00 
       3.855670e+00      -1.087417e-02       4.348708e+00 
       3.882461e+00      -8.052549e-03       4.348708e+00 
       4.321991e+00      -4.310017e+00      -1.348245e-02 
       4.304456e+00      -4.325395e+00       0.000000e+00 
       4.324809e+00      -4.336783e+00       1.348245e-02 
       4.342344e+00      -4.321405e+00       0.000000e+00 
       3.866659e+00       1.338319e-02       4.325692e+00 
       3.849124e+00      -1.995198e-03       4.339174e+00 
       3.869478e+00      -1.338321e-02       4.352657e+00 
       3.887013e+00       1.995180e-03       4.339174e+00 
       4.108134e+00      -2.150826e+00       2.160053e+00 
       4.081342e+00      -2.153647e+00       2.160053e+00 
       4.083335e+00      -2.172574e+00       2.179121e+00 
       4.110127e+00      -2.169753e+00       2.179121e+00 
       4.315348e+00      -4.309007e+00      -9.533393e-03 
       4.312525e+00      -4.335799e+00      -9.533393e-03 
       4.331452e+00      -4.337793e+00       9.533393e-03 
       4.334275e+00      -4.311001e+00       9.533393e-03 
      -7.886559e-03      -3.853506e+00       4.329623e+00 
      -1.070933e-02      -3.880297e+00       4.329623e+00 
       8.217567e-03      -3.882292e+00       4.348690e+00 
       1.104034e-02      -3.855500e+00       4.348690e+00 
       4.310017e+00      -4.321990e+00      -1.348225e-02 
       4.321404e+00      -4.342344e+00       0.000000e+00 
       4.336783e+00      -4.324810e+00       1.348225e-02 
       4.325396e+00      -4.304456e+00       0.000000e+00 
      -1.321783e-02      -3.866489e+00       4.325674e+00 
      -1.830498e-03      -3.886843e+00       4.339156e+00 
       1.354884e-02      -3.869309e+00       4.352638e+00 
       2.161506e-03      -3.848954e+00       4.339156e+00 
       2.153731e+00      -4.081257e+00       2.160045e+00 
       2.150908e+00      -4.108048e+00       2.160045e+00 
       2.169835e+00      -4.110042e+00       2.179111e+00 
       2.172658e+00      -4.083251e+00       2.179111e+00 
      -4.290298e+00      -4.323588e+00      -3.456502e-03 
      -4.323573e+00      -4.290298e+00      -3.456502e-03 
      -4.356502e+00      -4.323212e+00       3.456502e-03 
      -4.323227e+00      -4.356502e+00       3.456502e-03 
      -3.834595e+00      -3.868090e+00       4.335912e+00 
      -3.867870e+00      -3.834800e+00       4.335912e+00 
      -3.900799e+00      -3.867714e+00       4.342825e+00 
[...]
POINT_DATA     13260 
VECTORS Displacements float
       0.00000000e+00       0.00000000e+00       0.00000000e+00 
       0.00000000e+00       0.00000000e+00       0.00000000e+00 
       0.00000000e+00       0.00000000e+00       0.00000000e+00 
       0.00000000e+00       0.00000000e+00       0.00000000e+00 
       1.71268248e-04      -8.87768733e-09      -6.16443406e-05 
       1.71268248e-04      -8.87768733e-09      -6.16443406e-05 
       1.71268248e-04      -8.87768733e-09      -6.16443406e-05 
       1.71268248e-04      -8.87768733e-09      -6.16443406e-05 
       0.00000000e+00       0.00000000e+00       0.00000000e+00 
       0.00000000e+00       0.00000000e+00       0.00000000e+00 
       0.00000000e+00       0.00000000e+00       0.00000000e+00 
       0.00000000e+00       0.00000000e+00       0.00000000e+00 
       1.71268248e-04      -8.87768733e-09      -6.16443406e-05 
       1.71268248e-04      -8.87768733e-09      -6.16443406e-05 
       1.71268248e-04      -8.87768733e-09      -6.16443406e-05 
       1.71268248e-04      -8.87768733e-09      -6.16443406e-05 
       8.56341240e-05      -4.43884366e-09      -3.08221703e-05 
       8.56341240e-05      -4.43884366e-09      -3.08221703e-05 
       8.56341240e-05      -4.43884366e-09      -3.08221703e-05 
       8.56341240e-05      -4.43884366e-09      -3.08221703e-05 
       0.00000000e+00       0.00000000e+00       0.00000000e+00 
       0.00000000e+00       0.00000000e+00       0.00000000e+00 
       0.00000000e+00       0.00000000e+00       0.00000000e+00 
       0.00000000e+00       0.00000000e+00       0.00000000e+00 
       1.68882027e-04      -8.99095166e-09      -2.59450823e-05 
       1.68882027e-04      -8.99095166e-09      -2.59450823e-05 
       1.68882027e-04      -8.99095166e-09      -2.59450823e-05 
       1.68882027e-04      -8.99095166e-09      -2.59450823e-05 
       0.00000000e+00       0.00000000e+00       0.00000000e+00 
       0.00000000e+00       0.00000000e+00       0.00000000e+00 
       0.00000000e+00       0.00000000e+00       0.00000000e+00 
       0.00000000e+00       0.00000000e+00       0.00000000e+00 
       1.68882027e-04      -8.99095166e-09      -2.59450823e-05 
       1.68882027e-04      -8.99095166e-09      -2.59450823e-05 
       1.68882027e-04      -8.99095166e-09      -2.59450823e-05 
       1.68882027e-04      -8.99095166e-09      -2.59450823e-05 
       8.44410135e-05      -4.49547583e-09      -1.29725412e-05 
       8.44410135e-05      -4.49547583e-09      -1.29725412e-05 
       8.44410135e-05      -4.49547583e-09      -1.29725412e-05 
       8.44410135e-05      -4.49547583e-09      -1.29725412e-05 
       0.00000000e+00       0.00000000e+00       0.00000000e+00 
       0.00000000e+00       0.00000000e+00       0.00000000e+00 
       0.00000000e+00       0.00000000e+00       0.00000000e+00 
       0.00000000e+00       0.00000000e+00       0.00000000e+00 
       1.71268248e-04      -8.87768733e-09      -6.16443406e-05 
       1.71268248e-04      -8.87768733e-09      -6.16443406e-05 
       1.71268248e-04      -8.87768733e-09      -6.16443406e-05 
       1.71268248e-04      -8.87768733e-09      -6.16443406e-05 
       0.00000000e+00       0.00000000e+00       0.00000000e+00 
       0.00000000e+00       0.00000000e+00       0.00000000e+00 
       0.00000000e+00       0.00000000e+00       0.00000000e+00 
       0.00000000e+00       0.00000000e+00       0.00000000e+00 
       1.71268248e-04      -8.87768733e-09      -6.16443406e-05 
       1.71268248e-04      -8.87768733e-09      -6.16443406e-05 
       1.71268248e-04      -8.87768733e-09      -6.16443406e-05 
       1.71268248e-04      -8.87768733e-09      -6.16443406e-05 
       8.56341240e-05      -4.43884366e-09      -3.08221703e-05 
       8.56341240e-05      -4.43884366e-09      -3.08221703e-05 
       8.56341240e-05      -4.43884366e-09      -3.08221703e-05 
       8.56341240e-05      -4.43884366e-09      -3.08221703e-05 
       0.00000000e+00       0.00000000e+00       0.00000000e+00 
       0.00000000e+00       0.00000000e+00       0.00000000e+00 
       0.00000000e+00       0.00000000e+00       0.00000000e+00 
       0.00000000e+00       0.00000000e+00       0.00000000e+00 
       1.65503814e-04      -1.20269753e-06      -4.38016975e-05 
       1.65503814e-04      -1.20269753e-06      -4.38016975e-05 
       1.65503814e-04      -1.20269753e-06      -4.38016975e-05 
       1.65503814e-04      -1.20269753e-06      -4.38016975e-05 
       0.00000000e+00       0.00000000e+00       0.00000000e+00 
       0.00000000e+00       0.00000000e+00       0.00000000e+00 
       0.00000000e+00       0.00000000e+00       0.00000000e+00 
       0.00000000e+00       0.00000000e+00       0.00000000e+00 
       1.65503814e-04      -1.20269753e-06      -4.38016975e-05 
       1.65503814e-04      -1.20269753e-06      -4.38016975e-05 
       1.65503814e-04      -1.20269753e-06      -4.38016975e-05 
       1.65503814e-04      -1.20269753e-06      -4.38016975e-05 
       8.27519068e-05      -6.01348765e-07      -2.19008487e-05 
       8.27519068e-05      -6.01348765e-07      -2.19008487e-05 
       8.27519068e-05      -6.01348765e-07      -2.19008487e-05 
       8.27519068e-05      -6.01348765e-07      -2.19008487e-05 
       0.00000000e+00       0.00000000e+00       0.00000000e+00 
       0.00000000e+00       0.00000000e+00       0.00000000e+00 
       0.00000000e+00       0.00000000e+00       0.00000000e+00 
       0.00000000e+00       0.00000000e+00       0.00000000e+00 
       1.65503714e-04       1.18482866e-06      -4.37998214e-05 
       1.65503714e-04       1.18482866e-06      -4.37998214e-05 
       1.65503714e-04       1.18482866e-06      -4.37998214e-05 
       1.65503714e-04       1.18482866e-06      -4.37998214e-05 
       0.00000000e+00       0.00000000e+00       0.00000000e+00 
       0.00000000e+00       0.00000000e+00       0.00000000e+00 
       0.00000000e+00       0.00000000e+00       0.00000000e+00 
       0.00000000e+00       0.00000000e+00       0.00000000e+00 
       1.65503714e-04       1.18482866e-06      -4.37998214e-05 
       1.65503714e-04       1.18482866e-06      -4.37998214e-05 
       1.65503714e-04       1.18482866e-06      -4.37998214e-05 
       1.65503714e-04       1.18482866e-06      -4.37998214e-05 
       8.27518569e-05       5.92414330e-07      -2.18999107e-05 
       8.27518569e-05       5.92414330e-07      -2.18999107e-05 
       8.27518569e-05       5.92414330e-07      -2.18999107e-05 
       8.27518569e-05       5.92414330e-07      -2.18999107e-05 
       0.00000000e+00       0.00000000e+00       0.00000000e+00 
       0.00000000e+00       0.00000000e+00       0.00000000e+00 
       0.00000000e+00       0.00000000e+00       0.00000000e+00 
       0.00000000e+00       0.00000000e+00       0.00000000e+00 
       1.65503814e-04      -1.20269753e-06      -4.38016975e-05 
       1.65503814e-04      -1.20269753e-06      -4.38016975e-05 
       1.65503814e-04      -1.20269753e-06      -4.38016975e-05 
       1.65503814e-04      -1.20269753e-06      -4.38016975e-05 
       0.00000000e+00       0.00000000e+00       0.00000000e+00 
       0.00000000e+00       0.00000000e+00       0.00000000e+00 
       0.00000000e+00       0.00000000e+00       0.00000000e+00 
       0.00000000e+00       0.00000000e+00       0.00000000e+00 
       1.65503814e-04      -1.20269753e-06      -4.38016975e-05 
       1.65503814e-04      -1.20269753e-06      -4.38016975e-05 
       1.65503814e-04      -1.20269753e-06      -4.38016975e-05 
       1.65503814e-04      -1.20269753e-06      -4.38016975e-05 
       8.27519068e-05      -6.01348765e-07      -2.19008487e-05 
       8.27519068e-05      -6.01348765e-07      -2.19008487e-05 
       8.27519068e-05      -6.01348765e-07      -2.19008487e-05 
       8.27519068e-05      -6.01348765e-07      -2.19008487e-05 
       0.00000000e+00       0.00000000e+00       0.00000000e+00 
       0.00000000e+00       0.00000000e+00       0.00000000e+00 
       0.00000000e+00       0.00000000e+00       0.00000000e+00 
       0.00000000e+00       0.00000000e+00       0.00000000e+00 
       1.68882027e-04      -8.99095166e-09      -2.59450823e-05 
       1.68882027e-04      -8.99095166e-09      -2.59450823e-05 
       1.68882027e-04      -8.99095166e-09      -2.59450823e-05 
       1.68882027e-04      -8.99095166e-09      -2.59450823e-05 
       0.00000000e+00       0.00000000e+00       0.00000000e+00 
       0.00000000e+00       0.00000000e+00       0.00000000e+00 
       0.00000000e+00       0.00000000e+00       0.00000000e+00 
       0.00000000e+00       0.00000000e+00       0.00000000e+00 
       1.68882027e-04      -8.99095166e-09      -2.59450823e-05 
       1.68882027e-04      -8.99095166e-09      -2.59450823e-05 
       1.68882027e-04      -8.99095166e-09      -2.59450823e-05 
       1.68882027e-04      -8.99095166e-09      -2.59450823e-05 
       8.44410135e-05      -4.49547583e-09      -1.29725412e-05 
       8.44410135e-05      -4.49547583e-09      -1.29725412e-05 
       8.44410135e-05      -4.49547583e-09      -1.29725412e-05 
       8.44410135e-05      -4.49547583e-09      -1.29725412e-05 
       0.00000000e+00       0.00000000e+00       0.00000000e+00 
       0.00000000e+00       0.00000000e+00       0.00000000e+00 
       0.00000000e+00       0.00000000e+00       0.00000000e+00 
       0.00000000e+00       0.00000000e+00       0.00000000e+00 
       1.65503714e-04       1.18482866e-06      -4.37998214e-05 
       1.65503714e-04       1.18482866e-06      -4.37998214e-05 
       1.65503714e-04       1.18482866e-06      -4.37998214e-05 
       1.65503714e-04       1.18482866e-06      -4.37998214e-05 
       0.00000000e+00       0.00000000e+00       0.00000000e+00 
       0.00000000e+00       0.00000000e+00       0.00000000e+00 
       0.00000000e+00       0.00000000e+00       0.00000000e+00 
       0.00000000e+00       0.00000000e+00       0.00000000e+00 
       1.65503714e-04       1.18482866e-06      -4.37998214e-05 
       1.65503714e-04       1.18482866e-06      -4.37998214e-05 
       1.65503714e-04       1.18482866e-06      -4.37998214e-05 
       1.65503714e-04       1.18482866e-06      -4.37998214e-05 
       8.27518569e-05       5.92414330e-07      -2.18999107e-05 
       8.27518569e-05       5.92414330e-07      -2.18999107e-05 
       8.27518569e-05       5.92414330e-07      -2.18999107e-05 
       8.27518569e-05       5.92414330e-07      -2.18999107e-05 
       0.00000000e+00       0.00000000e+00       0.00000000e+00 
       0.00000000e+00       0.00000000e+00       0.00000000e+00 
       0.00000000e+00       0.00000000e+00       0.00000000e+00 
       0.00000000e+00       0.00000000e+00       0.00000000e+00 
       2.02831414e-04      -2.15629844e-06       1.68711470e-04 
       2.02831414e-04      -2.15629844e-06       1.68711470e-04 
       2.02831414e-04      -2.15629844e-06       1.68711470e-04 
       2.02831414e-04      -2.15629844e-06       1.68711470e-04 
       0.00000000e+00       0.00000000e+00       0.00000000e+00 
       0.00000000e+00       0.00000000e+00       0.00000000e+00 
       0.00000000e+00       0.00000000e+00       0.00000000e+00 
       0.00000000e+00       0.00000000e+00       0.00000000e+00 
       2.02831414e-04      -2.15629844e-06       1.68711470e-04 
       2.02831414e-04      -2.15629844e-06       1.68711470e-04 
       2.02831414e-04      -2.15629844e-06       1.68711470e-04 
       2.02831414e-04      -2.15629844e-06       1.68711470e-04 
       1.01415707e-04      -1.07814922e-06       8.43557349e-05 
       1.01415707e-04      -1.07814922e-06       8.43557349e-05 
       1.01415707e-04      -1.07814922e-06       8.43557349e-05 
       1.01415707e-04      -1.07814922e-06       8.43557349e-05 
       0.00000000e+00       0.00000000e+00       0.00000000e+00 
       0.00000000e+00       0.00000000e+00       0.00000000e+00 
       0.00000000e+00       0.00000000e+00       0.00000000e+00 
       0.00000000e+00       0.00000000e+00       0.00000000e+00 
       2.24959333e-04      -1.97632321e-05      -5.09835877e-04 
       2.24959333e-04      -1.97632321e-05      -5.09835877e-04 
       2.24959333e-04      -1.97632321e-05      -5.09835877e-04 
       2.24959333e-04      -1.97632321e-05      -5.09835877e-04 
       0.00000000e+00       0.00000000e+00       0.00000000e+00 
       0.00000000e+00       0.00000000e+00       0.00000000e+00 
       0.00000000e+00       0.00000000e+00       0.00000000e+00 
       0.00000000e+00       0.00000000e+00       0.00000000e+00 
       2.24959333e-04      -1.97632321e-05      -5.09835877e-04 
       2.24959333e-04      -1.97632321e-05      -5.09835877e-04 
       2.24959333e-04      -1.97632321e-05      -5.09835877e-04 
       2.24959333e-04      -1.97632321e-05      -5.09835877e-04 
       1.12479666e-04      -9.88161603e-06      -2.54917939e-04 
       1.12479666e-04      -9.88161603e-06      -2.54917939e-04 
       1.12479666e-04      -9.88161603e-06      -2.54917939e-04 
       1.12479666e-04      -9.88161603e-06      -2.54917939e-04 
       0.00000000e+00       0.00000000e+00       0.00000000e+00 
       0.00000000e+00       0.00000000e+00       0.00000000e+00 
       0.00000000e+00       0.00000000e+00       0.00000000e+00 
       0.00000000e+00       0.00000000e+00       0.00000000e+00 
       2.24960550e-04       1.97396325e-05      -5.09858386e-04 
       2.24960550e-04       1.97396325e-05      -5.09858386e-04 
       2.24960550e-04       1.97396325e-05      -5.09858386e-04 
       2.24960550e-04       1.97396325e-05      -5.09858386e-04 
       0.00000000e+00       0.00000000e+00       0.00000000e+00 
       0.00000000e+00       0.00000000e+00       0.00000000e+00 
       0.00000000e+00       0.00000000e+00       0.00000000e+00 
       0.00000000e+00       0.00000000e+00       0.00000000e+00 
       2.24960550e-04       1.97396325e-05      -5.09858386e-04 
       2.24960550e-04       1.97396325e-05      -5.09858386e-04 
       2.24960550e-04       1.97396325e-05      -5.09858386e-04 
       2.24960550e-04       1.97396325e-05      -5.09858386e-04 
       1.12480275e-04       9.86981626e-06      -2.54929193e-04 
       1.12480275e-04       9.86981626e-06      -2.54929193e-04 
       1.12480275e-04       9.86981626e-06      -2.54929193e-04 
       1.12480275e-04       9.86981626e-06      -2.54929193e-04 
       0.00000000e+00       0.00000000e+00       0.00000000e+00 
       0.00000000e+00       0.00000000e+00       0.00000000e+00 
       0.00000000e+00       0.00000000e+00       0.00000000e+00 
       0.00000000e+00       0.00000000e+00       0.00000000e+00 
       2.02830445e-04       2.13300988e-06       1.68688976e-04 
       2.02830445e-04       2.13300988e-06       1.68688976e-04 
       2.02830445e-04       2.13300988e-06       1.68688976e-04 
       2.02830445e-04       2.13300988e-06       1.68688976e-04 
       0.00000000e+00       0.00000000e+00       0.00000000e+00 
       0.00000000e+00       0.00000000e+00       0.00000000e+00 
       0.00000000e+00       0.00000000e+00       0.00000000e+00 
       0.00000000e+00       0.00000000e+00       0.00000000e+00 
       2.02830445e-04       2.13300988e-06       1.68688976e-04 
       2.02830445e-04       2.13300988e-06       1.68688976e-04 
       2.02830445e-04       2.13300988e-06       1.68688976e-04 
       2.02830445e-04       2.13300988e-06       1.68688976e-04 
       1.01415223e-04       1.06650494e-06       8.43444880e-05 
       1.01415223e-04       1.06650494e-06       8.43444880e-05 
       1.01415223e-04       1.06650494e-06       8.43444880e-05 
       1.01415223e-04       1.06650494e-06       8.43444880e-05 
       1.71268248e-04      -8.87768733e-09      -6.16443406e-05 
       1.71268248e-04      -8.87768733e-09      -6.16443406e-05 
       1.71268248e-04      -8.87768733e-09      -6.16443406e-05 
       1.71268248e-04      -8.87768733e-09      -6.16443406e-05 
       2.02830445e-04       2.13300988e-06       1.68688976e-04 
       2.02830445e-04       2.13300988e-06       1.68688976e-04 
       2.02830445e-04       2.13300988e-06       1.68688976e-04 
       2.02830445e-04       2.13300988e-06       1.68688976e-04 
       1.71268248e-04      -8.87768733e-09      -6.16443406e-05 
       1.71268248e-04      -8.87768733e-09      -6.16443406e-05 
       1.71268248e-04      -8.87768733e-09      -6.16443406e-05 
       1.71268248e-04      -8.87768733e-09      -6.16443406e-05 
       2.02830445e-04       2.13300988e-06       1.68688976e-04 
       2.02830445e-04       2.13300988e-06       1.68688976e-04 
       2.02830445e-04       2.13300988e-06       1.68688976e-04 
       2.02830445e-04       2.13300988e-06       1.68688976e-04 
       1.87049347e-04       1.06206610e-06       5.35223177e-05 
       1.87049347e-04       1.06206610e-06       5.35223177e-05 
       1.87049347e-04       1.06206610e-06       5.35223177e-05 
       1.87049347e-04       1.06206610e-06       5.35223177e-05 
       1.71268248e-04      -8.87768733e-09      -6.16443406e-05 
       1.71268248e-04      -8.87768733e-09      -6.16443406e-05 
       1.71268248e-04      -8.87768733e-09      -6.16443406e-05 
       1.71268248e-04      -8.87768733e-09      -6.16443406e-05 
       2.02831414e-04      -2.15629844e-06       1.68711470e-04 
       2.02831414e-04      -2.15629844e-06       1.68711470e-04 
       2.02831414e-04      -2.15629844e-06       1.68711470e-04 
       2.02831414e-04      -2.15629844e-06       1.68711470e-04 
       1.71268248e-04      -8.87768733e-09      -6.16443406e-05 
       1.71268248e-04      -8.87768733e-09      -6.16443406e-05 
       1.71268248e-04      -8.87768733e-09      -6.16443406e-05 
       1.71268248e-04      -8.87768733e-09      -6.16443406e-05 
       2.02831414e-04      -2.15629844e-06       1.68711470e-04 
       2.02831414e-04      -2.15629844e-06       1.68711470e-04 
       2.02831414e-04      -2.15629844e-06       1.68711470e-04 
       2.02831414e-04      -2.15629844e-06       1.68711470e-04 
       1.87049831e-04      -1.08258806e-06       5.35335646e-05 
       1.87049831e-04      -1.08258806e-06       5.35335646e-05 
       1.87049831e-04      -1.08258806e-06       5.35335646e-05 
       1.87049831e-04      -1.08258806e-06       5.35335646e-05 
       1.68882027e-04      -8.99095166e-09      -2.59450823e-05 
       1.68882027e-04      -8.99095166e-09      -2.59450823e-05 
       1.68882027e-04      -8.99095166e-09      -2.59450823e-05 
       1.68882027e-04      -8.99095166e-09      -2.59450823e-05 
       2.24960550e-04       1.97396325e-05      -5.09858386e-04 
       2.24960550e-04       1.97396325e-05      -5.09858386e-04 
       2.24960550e-04       1.97396325e-05      -5.09858386e-04 
       2.24960550e-04       1.97396325e-05      -5.09858386e-04 
       1.68882027e-04      -8.99095166e-09      -2.59450823e-05 
       1.68882027e-04      -8.99095166e-09      -2.59450823e-05 
       1.68882027e-04      -8.99095166e-09      -2.59450823e-05 
       1.68882027e-04      -8.99095166e-09      -2.59450823e-05 
       2.24960550e-04       1.97396325e-05      -5.09858386e-04 
       2.24960550e-04       1.97396325e-05      -5.09858386e-04 
       2.24960550e-04       1.97396325e-05      -5.09858386e-04 
       2.24960550e-04       1.97396325e-05      -5.09858386e-04 
       1.96921289e-04       9.86532079e-06      -2.67901734e-04 
       1.96921289e-04       9.86532079e-06      -2.67901734e-04 
       1.96921289e-04       9.86532079e-06      -2.67901734e-04 
       1.96921289e-04       9.86532079e-06      -2.67901734e-04 
       1.68882027e-04      -8.99095166e-09      -2.59450823e-05 
       1.68882027e-04      -8.99095166e-09      -2.59450823e-05 
       1.68882027e-04      -8.99095166e-09      -2.59450823e-05 
       1.68882027e-04      -8.99095166e-09      -2.59450823e-05 
       1.65503714e-04       1.18482866e-06      -4.37998214e-05 
       1.65503714e-04       1.18482866e-06      -4.37998214e-05 