# vtk DataFile Version 2.0
./output/Static_Tower/Static_Tower_0009.vtk
ASCII
DATASET UNSTRUCTURED_GRID

POINTS 13260 float
      -4.335799e+00       4.312526e+00      -9.534336e-03 
      -4.309007e+00       4.315349e+00      -9.534336e-03 
      -4.311001e+00       4.334274e+00       9.534336e-03 
      -4.337793e+00       4.331451e+00       9.534336e-03 
      -3.880278e+00      -1.086019e-02       4.328915e+00 
      -3.853487e+00      -8.037396e-03       4.328915e+00 
      -3.855481e+00       1.088762e-02       4.347983e+00 
      -3.882272e+00       8.064830e-03       4.347983e+00 
      -4.321990e+00       4.310018e+00      -1.348359e-02 
      -4.304456e+00       4.325396e+00       0.000000e+00 
      -4.324810e+00       4.336782e+00       1.348359e-02 
      -4.342344e+00       4.321404e+00       0.000000e+00 
      -3.866470e+00      -1.336829e-02       4.324965e+00 
      -3.848935e+00       2.009732e-03       4.338449e+00 
      -3.869290e+00       1.339573e-02       4.351933e+00 
      -3.886824e+00      -1.982298e-03       4.338449e+00 
      -4.108039e+00       2.150833e+00       2.159690e+00 
      -4.081247e+00       2.153656e+00       2.159690e+00 
      -4.083241e+00       2.172581e+00       2.178759e+00 
      -4.110033e+00       2.169758e+00       2.178759e+00 
       4.309007e+00       4.315349e+00      -9.534336e-03 
       4.335799e+00       4.312526e+00      -9.534336e-03 
       4.337793e+00       4.331451e+00       9.534336e-03 
       4.311001e+00       4.334274e+00       9.534336e-03 
       3.853487e+00      -8.037395e-03       4.328915e+00 
       3.880278e+00      -1.086019e-02       4.328915e+00 
       3.882272e+00       8.064829e-03       4.347983e+00 
       3.855481e+00       1.088762e-02       4.347983e+00 
       4.321990e+00       4.310018e+00      -1.348359e-02 
       4.342344e+00       4.321404e+00       0.000000e+00 
       4.324810e+00       4.336782e+00       1.348359e-02 
       4.304456e+00       4.325396e+00       0.000000e+00 
       3.866469e+00      -1.336829e-02       4.324965e+00 
       3.886824e+00      -1.982300e-03       4.338449e+00 
       3.869289e+00       1.339573e-02       4.351933e+00 
       3.848935e+00       2.009734e-03       4.338449e+00 
       4.081247e+00       2.153656e+00       2.159690e+00 
       4.108038e+00       2.150833e+00       2.159690e+00 
       4.110032e+00       2.169758e+00       2.178759e+00 
       4.083241e+00       2.172581e+00       2.178759e+00 
      -4.309007e+00      -4.315349e+00      -9.534366e-03 
      -4.335799e+00      -4.312526e+00      -9.534366e-03 
      -4.337793e+00      -4.331451e+00       9.534366e-03 
      -4.311001e+00      -4.334274e+00       9.534366e-03 
      -3.853487e+00       8.064810e-03       4.328915e+00 
      -3.880278e+00       1.088758e-02       4.328915e+00 
      -3.882272e+00      -8.037376e-03       4.347983e+00 
      -3.855481e+00      -1.086015e-02       4.347983e+00 
      -4.321990e+00      -4.310018e+00      -1.348363e-02 
      -4.342344e+00      -4.321404e+00       0.000000e+00 
      -4.324810e+00      -4.336782e+00       1.348363e-02 
      -4.304456e+00      -4.325396e+00       0.000000e+00 
      -3.866470e+00       1.339568e-02       4.324965e+00 
      -3.886824e+00       2.009720e-03       4.338449e+00 
      -3.869290e+00      -1.336825e-02       4.351933e+00 
      -3.848935e+00      -1.982286e-03       4.338449e+00 
      -4.081247e+00      -2.153642e+00       2.159690e+00 
      -4.108039e+00      -2.150819e+00       2.159690e+00 
      -4.110033e+00      -2.169744e+00       2.178759e+00 
      -4.083241e+00      -2.172567e+00       2.178759e+00 
      -4.315349e+00       4.309007e+00      -9.534348e-03 
      -4.312526e+00       4.335799e+00      -9.534348e-03 
      -4.331451e+00       4.337793e+00       9.534348e-03 
      -4.334274e+00       4.311001e+00       9.534348e-03 
       8.050966e-03       3.853501e+00       4.328916e+00 
       1.087366e-02       3.880292e+00       4.328916e+00 
      -8.051339e-03       3.882286e+00       4.347985e+00 
      -1.087404e-02       3.855495e+00       4.347985e+00 
      -4.310018e+00       4.321990e+00      -1.348360e-02 
      -4.321404e+00       4.342344e+00       0.000000e+00 
      -4.336782e+00       4.324810e+00       1.348360e-02 
      -4.325396e+00       4.304456e+00       0.000000e+00 
       1.338181e-02       3.866484e+00       4.324967e+00 
       1.995763e-03       3.886838e+00       4.338450e+00 
      -1.338218e-02       3.869304e+00       4.351934e+00 
      -1.996135e-03       3.848949e+00       4.338450e+00 
      -2.153649e+00       4.081254e+00       2.159691e+00 
      -2.150826e+00       4.108046e+00       2.159691e+00 
      -2.169751e+00       4.110039e+00       2.178760e+00 
      -2.172574e+00       4.083248e+00       2.178760e+00 
      -4.312526e+00      -4.335799e+00      -9.534354e-03 
      -4.315349e+00      -4.309007e+00      -9.534354e-03 
      -4.334274e+00      -4.311001e+00       9.534354e-03 
      -4.331451e+00      -4.337793e+00       9.534354e-03 
       1.087374e-02      -3.880264e+00       4.328913e+00 
       8.050867e-03      -3.853473e+00       4.328913e+00 
      -1.087411e-02      -3.855467e+00       4.347982e+00 
      -8.051239e-03      -3.882258e+00       4.347982e+00 
      -4.310018e+00      -4.321990e+00      -1.348361e-02 
      -4.325396e+00      -4.304456e+00       0.000000e+00 
      -4.336782e+00      -4.324810e+00       1.348361e-02 
      -4.321404e+00      -4.342344e+00       0.000000e+00 
       1.338179e-02      -3.866455e+00       4.324964e+00 
      -1.996257e-03      -3.848921e+00       4.338447e+00 
      -1.338217e-02      -3.869275e+00       4.351931e+00 
       1.995885e-03      -3.886810e+00       4.338447e+00 
      -2.150826e+00      -4.108031e+00       2.159689e+00 
      -2.153649e+00      -4.081240e+00       2.159689e+00 
      -2.172574e+00      -4.083234e+00       2.178758e+00 
      -2.169751e+00      -4.110025e+00       2.178758e+00 
       4.312526e+00       4.335799e+00      -9.534348e-03 
       4.315349e+00       4.309007e+00      -9.534348e-03 
       4.334274e+00       4.311001e+00       9.534348e-03 
       4.331451e+00       4.337793e+00       9.534348e-03 
      -1.087404e-02       3.880292e+00       4.328916e+00 
      -8.051338e-03       3.853501e+00       4.328916e+00 
       1.087366e-02       3.855495e+00       4.347985e+00 
       8.050966e-03       3.882286e+00       4.347985e+00 
       4.310018e+00       4.321990e+00      -1.348360e-02 
       4.325396e+00       4.304456e+00       0.000000e+00 
       4.336782e+00       4.324810e+00       1.348360e-02 
       4.321404e+00       4.342344e+00       0.000000e+00 
      -1.338218e-02       3.866484e+00       4.324967e+00 
       1.995762e-03       3.848949e+00       4.338450e+00 
       1.338181e-02       3.869304e+00       4.351934e+00 
      -1.996135e-03       3.886838e+00       4.338450e+00 
       2.150826e+00       4.108046e+00       2.159691e+00 
       2.153649e+00       4.081254e+00       2.159691e+00 
       2.172574e+00       4.083248e+00       2.178760e+00 
       2.169751e+00       4.110039e+00       2.178760e+00 
       4.335799e+00      -4.312526e+00      -9.534366e-03 
       4.309007e+00      -4.315349e+00      -9.534366e-03 
       4.311001e+00      -4.334274e+00       9.534366e-03 
       4.337793e+00      -4.331451e+00       9.534366e-03 
       3.880278e+00       1.088759e-02       4.328915e+00 
       3.853487e+00       8.064809e-03       4.328915e+00 
       3.855481e+00      -1.086015e-02       4.347983e+00 
       3.882272e+00      -8.037375e-03       4.347983e+00 
       4.321990e+00      -4.310018e+00      -1.348363e-02 
       4.304456e+00      -4.325396e+00       0.000000e+00 
       4.324810e+00      -4.336782e+00       1.348363e-02 
       4.342344e+00      -4.321404e+00       0.000000e+00 
       3.866469e+00       1.339568e-02       4.324965e+00 
       3.848935e+00      -1.982287e-03       4.338449e+00 
       3.869289e+00      -1.336825e-02       4.351933e+00 
       3.886824e+00       2.009722e-03       4.338449e+00 
       4.108038e+00      -2.150819e+00       2.159690e+00 
       4.081247e+00      -2.153642e+00       2.159690e+00 
       4.083241e+00      -2.172567e+00       2.178759e+00 
       4.110032e+00      -2.169744e+00       2.178759e+00 
       4.315349e+00      -4.309007e+00      -9.534355e-03 
       4.312526e+00      -4.335799e+00      -9.534355e-03 
       4.331451e+00      -4.337793e+00       9.534355e-03 
       4.334274e+00      -4.311001e+00       9.534355e-03 
      -8.051239e-03      -3.853473e+00       4.328913e+00 
      -1.087411e-02      -3.880264e+00       4.328913e+00 
       8.050867e-03      -3.882258e+00       4.347982e+00 
       1.087374e-02      -3.855467e+00       4.347982e+00 
       4.310018e+00      -4.321990e+00      -1.348361e-02 
       4.321404e+00      -4.342344e+00       0.000000e+00 
       4.336782e+00      -4.324810e+00       1.348361e-02 
       4.325396e+00      -4.304456e+00       0.000000e+00 
      -1.338216e-02      -3.866455e+00       4.324964e+00 
      -1.996257e-03      -3.886810e+00       4.338447e+00 
       1.338179e-02      -3.869275e+00       4.351931e+00 
       1.995885e-03      -3.848921e+00       4.338447e+00 
       2.153649e+00      -4.081240e+00       2.159689e+00 
       2.150826e+00      -4.108031e+00       2.159689e+00 
       2.169751e+00      -4.110025e+00       2.178758e+00 
       2.172574e+00      -4.083234e+00       2.178758e+00 
      -4.290298e+00      -4.323580e+00      -3.457636e-03 
      -4.323581e+00      -4.290298e+00      -3.457636e-03 
      -4.356502e+00      -4.323220e+00       3.457636e-03 
      -4.323219e+00      -4.356502e+00       3.457636e-03 
      -3.835014e+00      -3.868278e+00       4.331530e+00 
      -3.868297e+00      -3.834997e+00       4.331530e+00 
      -3.901217e+00      -3.867919e+00       4.338445e+00 
[...]
POINT_DATA     13260 
VECTORS Displacements float
       0.00000000e+00       0.00000000e+00       0.00000000e+00 
       0.00000000e+00       0.00000000e+00       0.00000000e+00 
       0.00000000e+00       0.00000000e+00       0.00000000e+00 
       0.00000000e+00       0.00000000e+00       0.00000000e+00 
       2.02713775e-05       1.37170994e-05      -7.51010860e-04 
       2.02713775e-05       1.37170994e-05      -7.51010860e-04 
       2.02713775e-05       1.37170994e-05      -7.51010860e-04 
       2.02713775e-05       1.37170994e-05      -7.51010860e-04 
       0.00000000e+00       0.00000000e+00       0.00000000e+00 
       0.00000000e+00       0.00000000e+00       0.00000000e+00 
       0.00000000e+00       0.00000000e+00       0.00000000e+00 
       0.00000000e+00       0.00000000e+00       0.00000000e+00 
       2.02713775e-05       1.37170994e-05      -7.51010860e-04 
       2.02713775e-05       1.37170994e-05      -7.51010860e-04 
       2.02713775e-05       1.37170994e-05      -7.51010860e-04 
       2.02713775e-05       1.37170994e-05      -7.51010860e-04 
       1.01356888e-05       6.85854970e-06      -3.75505430e-04 
       1.01356888e-05       6.85854970e-06      -3.75505430e-04 
       1.01356888e-05       6.85854970e-06      -3.75505430e-04 
       1.01356888e-05       6.85854970e-06      -3.75505430e-04 
       0.00000000e+00       0.00000000e+00       0.00000000e+00 
       0.00000000e+00       0.00000000e+00       0.00000000e+00 
       0.00000000e+00       0.00000000e+00       0.00000000e+00 
       0.00000000e+00       0.00000000e+00       0.00000000e+00 
      -2.06435358e-05       1.37172907e-05      -7.51050076e-04 
      -2.06435358e-05       1.37172907e-05      -7.51050076e-04 
      -2.06435358e-05       1.37172907e-05      -7.51050076e-04 
      -2.06435358e-05       1.37172907e-05      -7.51050076e-04 
       0.00000000e+00       0.00000000e+00       0.00000000e+00 
       0.00000000e+00       0.00000000e+00       0.00000000e+00 
       0.00000000e+00       0.00000000e+00       0.00000000e+00 
       0.00000000e+00       0.00000000e+00       0.00000000e+00 
      -2.06435358e-05       1.37172907e-05      -7.51050076e-04 
      -2.06435358e-05       1.37172907e-05      -7.51050076e-04 
      -2.06435358e-05       1.37172907e-05      -7.51050076e-04 
      -2.06435358e-05       1.37172907e-05      -7.51050076e-04 
      -1.03217679e-05       6.85864533e-06      -3.75525038e-04 
      -1.03217679e-05       6.85864533e-06      -3.75525038e-04 
      -1.03217679e-05       6.85864533e-06      -3.75525038e-04 
      -1.03217679e-05       6.85864533e-06      -3.75525038e-04 
       0.00000000e+00       0.00000000e+00       0.00000000e+00 
       0.00000000e+00       0.00000000e+00       0.00000000e+00 
       0.00000000e+00       0.00000000e+00       0.00000000e+00 
       0.00000000e+00       0.00000000e+00       0.00000000e+00 
       2.02713775e-05       1.37170994e-05      -7.51010860e-04 
       2.02713775e-05       1.37170994e-05      -7.51010860e-04 
       2.02713775e-05       1.37170994e-05      -7.51010860e-04 
       2.02713775e-05       1.37170994e-05      -7.51010860e-04 
       0.00000000e+00       0.00000000e+00       0.00000000e+00 
       0.00000000e+00       0.00000000e+00       0.00000000e+00 
       0.00000000e+00       0.00000000e+00       0.00000000e+00 
       0.00000000e+00       0.00000000e+00       0.00000000e+00 
       2.02713775e-05       1.37170994e-05      -7.51010860e-04 
       2.02713775e-05       1.37170994e-05      -7.51010860e-04 
       2.02713775e-05       1.37170994e-05      -7.51010860e-04 
       2.02713775e-05       1.37170994e-05      -7.51010860e-04 
       1.01356888e-05       6.85854970e-06      -3.75505430e-04 
       1.01356888e-05       6.85854970e-06      -3.75505430e-04 
       1.01356888e-05       6.85854970e-06      -3.75505430e-04 
       1.01356888e-05       6.85854970e-06      -3.75505430e-04 
       0.00000000e+00       0.00000000e+00       0.00000000e+00 
       0.00000000e+00       0.00000000e+00       0.00000000e+00 
       0.00000000e+00       0.00000000e+00       0.00000000e+00 
       0.00000000e+00       0.00000000e+00       0.00000000e+00 
      -1.86141237e-07      -6.32676473e-06      -7.49553061e-04 
      -1.86141237e-07      -6.32676473e-06      -7.49553061e-04 
      -1.86141237e-07      -6.32676473e-06      -7.49553061e-04 
      -1.86141237e-07      -6.32676473e-06      -7.49553061e-04 
       0.00000000e+00       0.00000000e+00       0.00000000e+00 
       0.00000000e+00       0.00000000e+00       0.00000000e+00 
       0.00000000e+00       0.00000000e+00       0.00000000e+00 
       0.00000000e+00       0.00000000e+00       0.00000000e+00 
      -1.86141237e-07      -6.32676473e-06      -7.49553061e-04 
      -1.86141237e-07      -6.32676473e-06      -7.49553061e-04 
      -1.86141237e-07      -6.32676473e-06      -7.49553061e-04 
      -1.86141237e-07      -6.32676473e-06      -7.49553061e-04 
      -9.30706183e-08      -3.16338236e-06      -3.74776531e-04 
      -9.30706183e-08      -3.16338236e-06      -3.74776531e-04 
      -9.30706183e-08      -3.16338236e-06      -3.74776531e-04 
      -9.30706183e-08      -3.16338236e-06      -3.74776531e-04 
       0.00000000e+00       0.00000000e+00       0.00000000e+00 
       0.00000000e+00       0.00000000e+00       0.00000000e+00 
       0.00000000e+00       0.00000000e+00       0.00000000e+00 
       0.00000000e+00       0.00000000e+00       0.00000000e+00 
      -1.85931675e-07       3.45880057e-05      -7.52505643e-04 
      -1.85931675e-07       3.45880057e-05      -7.52505643e-04 
      -1.85931675e-07       3.45880057e-05      -7.52505643e-04 
      -1.85931675e-07       3.45880057e-05      -7.52505643e-04 
       0.00000000e+00       0.00000000e+00       0.00000000e+00 
       0.00000000e+00       0.00000000e+00       0.00000000e+00 
       0.00000000e+00       0.00000000e+00       0.00000000e+00 
       0.00000000e+00       0.00000000e+00       0.00000000e+00 
      -1.85931675e-07       3.45880057e-05      -7.52505643e-04 
      -1.85931675e-07       3.45880057e-05      -7.52505643e-04 
      -1.85931675e-07       3.45880057e-05      -7.52505643e-04 
      -1.85931675e-07       3.45880057e-05      -7.52505643e-04 
      -9.29658377e-08       1.72940029e-05      -3.76252822e-04 
      -9.29658377e-08       1.72940029e-05      -3.76252822e-04 
      -9.29658377e-08       1.72940029e-05      -3.76252822e-04 
      -9.29658377e-08       1.72940029e-05      -3.76252822e-04 
       0.00000000e+00       0.00000000e+00       0.00000000e+00 
       0.00000000e+00       0.00000000e+00       0.00000000e+00 
       0.00000000e+00       0.00000000e+00       0.00000000e+00 
       0.00000000e+00       0.00000000e+00       0.00000000e+00 
      -1.86141237e-07      -6.32676473e-06      -7.49553061e-04 
      -1.86141237e-07      -6.32676473e-06      -7.49553061e-04 
      -1.86141237e-07      -6.32676473e-06      -7.49553061e-04 
      -1.86141237e-07      -6.32676473e-06      -7.49553061e-04 
       0.00000000e+00       0.00000000e+00       0.00000000e+00 
       0.00000000e+00       0.00000000e+00       0.00000000e+00 
       0.00000000e+00       0.00000000e+00       0.00000000e+00 
       0.00000000e+00       0.00000000e+00       0.00000000e+00 
      -1.86141237e-07      -6.32676473e-06      -7.49553061e-04 
      -1.86141237e-07      -6.32676473e-06      -7.49553061e-04 
      -1.86141237e-07      -6.32676473e-06      -7.49553061e-04 
      -1.86141237e-07      -6.32676473e-06      -7.49553061e-04 
      -9.30706183e-08      -3.16338236e-06      -3.74776531e-04 
      -9.30706183e-08      -3.16338236e-06      -3.74776531e-04 
      -9.30706183e-08      -3.16338236e-06      -3.74776531e-04 
      -9.30706183e-08      -3.16338236e-06      -3.74776531e-04 
       0.00000000e+00       0.00000000e+00       0.00000000e+00 
       0.00000000e+00       0.00000000e+00       0.00000000e+00 
       0.00000000e+00       0.00000000e+00       0.00000000e+00 
       0.00000000e+00       0.00000000e+00       0.00000000e+00 
      -2.06435358e-05       1.37172907e-05      -7.51050076e-04 
      -2.06435358e-05       1.37172907e-05      -7.51050076e-04 
      -2.06435358e-05       1.37172907e-05      -7.51050076e-04 
      -2.06435358e-05       1.37172907e-05      -7.51050076e-04 
       0.00000000e+00       0.00000000e+00       0.00000000e+00 
       0.00000000e+00       0.00000000e+00       0.00000000e+00 
       0.00000000e+00       0.00000000e+00       0.00000000e+00 
       0.00000000e+00       0.00000000e+00       0.00000000e+00 
      -2.06435358e-05       1.37172907e-05      -7.51050076e-04 
      -2.06435358e-05       1.37172907e-05      -7.51050076e-04 
      -2.06435358e-05       1.37172907e-05      -7.51050076e-04 
      -2.06435358e-05       1.37172907e-05      -7.51050076e-04 
      -1.03217679e-05       6.85864533e-06      -3.75525038e-04 
      -1.03217679e-05       6.85864533e-06      -3.75525038e-04 
      -1.03217679e-05       6.85864533e-06      -3.75525038e-04 
      -1.03217679e-05       6.85864533e-06      -3.75525038e-04 
       0.00000000e+00       0.00000000e+00       0.00000000e+00 
       0.00000000e+00       0.00000000e+00       0.00000000e+00 
       0.00000000e+00       0.00000000e+00       0.00000000e+00 
       0.00000000e+00       0.00000000e+00       0.00000000e+00 
      -1.85931675e-07       3.45880057e-05      -7.52505643e-04 
      -1.85931675e-07       3.45880057e-05      -7.52505643e-04 
      -1.85931675e-07       3.45880057e-05      -7.52505643e-04 
      -1.85931675e-07       3.45880057e-05      -7.52505643e-04 
       0.00000000e+00       0.00000000e+00       0.00000000e+00 
       0.00000000e+00       0.00000000e+00       0.00000000e+00 
       0.00000000e+00       0.00000000e+00       0.00000000e+00 
       0.00000000e+00       0.00000000e+00       0.00000000e+00 
      -1.85931675e-07       3.45880057e-05      -7.52505643e-04 
      -1.85931675e-07       3.45880057e-05      -7.52505643e-04 
      -1.85931675e-07       3.45880057e-05      -7.52505643e-04 
      -1.85931675e-07       3.45880057e-05      -7.52505643e-04 
      -9.29658377e-08       1.72940029e-05      -3.76252822e-04 
      -9.29658377e-08       1.72940029e-05      -3.76252822e-04 
      -9.29658377e-08       1.72940029e-05      -3.76252822e-04 
      -9.29658377e-08       1.72940029e-05      -3.76252822e-04 
       0.00000000e+00       0.00000000e+00       0.00000000e+00 
       0.00000000e+00       0.00000000e+00       0.00000000e+00 
       0.00000000e+00       0.00000000e+00       0.00000000e+00 
       0.00000000e+00       0.00000000e+00       0.00000000e+00 
      -2.15526253e-04      -1.98501516e-04      -4.21214513e-03 
      -2.15526253e-04      -1.98501516e-04      -4.21214513e-03 
      -2.15526253e-04      -1.98501516e-04      -4.21214513e-03 
      -2.15526253e-04      -1.98501516e-04      -4.21214513e-03 
       0.00000000e+00       0.00000000e+00       0.00000000e+00 
       0.00000000e+00       0.00000000e+00       0.00000000e+00 
       0.00000000e+00       0.00000000e+00       0.00000000e+00 
       0.00000000e+00       0.00000000e+00       0.00000000e+00 
      -2.15526253e-04      -1.98501516e-04      -4.21214513e-03 
      -2.15526253e-04      -1.98501516e-04      -4.21214513e-03 
      -2.15526253e-04      -1.98501516e-04      -4.21214513e-03 
      -2.15526253e-04      -1.98501516e-04      -4.21214513e-03 
      -1.07763126e-04      -9.92507579e-05      -2.10607257e-03 
      -1.07763126e-04      -9.92507579e-05      -2.10607257e-03 
      -1.07763126e-04      -9.92507579e-05      -2.10607257e-03 
      -1.07763126e-04      -9.92507579e-05      -2.10607257e-03 
       0.00000000e+00       0.00000000e+00       0.00000000e+00 
       0.00000000e+00       0.00000000e+00       0.00000000e+00 
       0.00000000e+00       0.00000000e+00       0.00000000e+00 
       0.00000000e+00       0.00000000e+00       0.00000000e+00 
       2.15037985e-04      -1.98520743e-04      -4.21260903e-03 
       2.15037985e-04      -1.98520743e-04      -4.21260903e-03 
       2.15037985e-04      -1.98520743e-04      -4.21260903e-03 
       2.15037985e-04      -1.98520743e-04      -4.21260903e-03 
       0.00000000e+00       0.00000000e+00       0.00000000e+00 
       0.00000000e+00       0.00000000e+00       0.00000000e+00 
       0.00000000e+00       0.00000000e+00       0.00000000e+00 
       0.00000000e+00       0.00000000e+00       0.00000000e+00 
       2.15037985e-04      -1.98520743e-04      -4.21260903e-03 
       2.15037985e-04      -1.98520743e-04      -4.21260903e-03 
       2.15037985e-04      -1.98520743e-04      -4.21260903e-03 
       2.15037985e-04      -1.98520743e-04      -4.21260903e-03 
       1.07518992e-04      -9.92603717e-05      -2.10630451e-03 
       1.07518992e-04      -9.92603717e-05      -2.10630451e-03 
       1.07518992e-04      -9.92603717e-05      -2.10630451e-03 
       1.07518992e-04      -9.92603717e-05      -2.10630451e-03 
       0.00000000e+00       0.00000000e+00       0.00000000e+00 
       0.00000000e+00       0.00000000e+00       0.00000000e+00 
       0.00000000e+00       0.00000000e+00       0.00000000e+00 
       0.00000000e+00       0.00000000e+00       0.00000000e+00 
       2.16115879e-04       2.33873863e-04      -4.27694353e-03 
       2.16115879e-04       2.33873863e-04      -4.27694353e-03 
       2.16115879e-04       2.33873863e-04      -4.27694353e-03 
       2.16115879e-04       2.33873863e-04      -4.27694353e-03 
       0.00000000e+00       0.00000000e+00       0.00000000e+00 
       0.00000000e+00       0.00000000e+00       0.00000000e+00 
       0.00000000e+00       0.00000000e+00       0.00000000e+00 
       0.00000000e+00       0.00000000e+00       0.00000000e+00 
       2.16115879e-04       2.33873863e-04      -4.27694353e-03 
       2.16115879e-04       2.33873863e-04      -4.27694353e-03 
       2.16115879e-04       2.33873863e-04      -4.27694353e-03 
       2.16115879e-04       2.33873863e-04      -4.27694353e-03 
       1.08057939e-04       1.16936931e-04      -2.13847177e-03 
       1.08057939e-04       1.16936931e-04      -2.13847177e-03 
       1.08057939e-04       1.16936931e-04      -2.13847177e-03 
       1.08057939e-04       1.16936931e-04      -2.13847177e-03 
       0.00000000e+00       0.00000000e+00       0.00000000e+00 
       0.00000000e+00       0.00000000e+00       0.00000000e+00 
       0.00000000e+00       0.00000000e+00       0.00000000e+00 
       0.00000000e+00       0.00000000e+00       0.00000000e+00 
      -2.16604718e-04       2.33854153e-04      -4.27647963e-03 
      -2.16604718e-04       2.33854153e-04      -4.27647963e-03 
      -2.16604718e-04       2.33854153e-04      -4.27647963e-03 
      -2.16604718e-04       2.33854153e-04      -4.27647963e-03 
       0.00000000e+00       0.00000000e+00       0.00000000e+00 
       0.00000000e+00       0.00000000e+00       0.00000000e+00 
       0.00000000e+00       0.00000000e+00       0.00000000e+00 
       0.00000000e+00       0.00000000e+00       0.00000000e+00 
      -2.16604718e-04       2.33854153e-04      -4.27647963e-03 
      -2.16604718e-04       2.33854153e-04      -4.27647963e-03 
      -2.16604718e-04       2.33854153e-04      -4.27647963e-03 
      -2.16604718e-04       2.33854153e-04      -4.27647963e-03 
      -1.08302359e-04       1.16927077e-04      -2.13823981e-03 
      -1.08302359e-04       1.16927077e-04      -2.13823981e-03 
      -1.08302359e-04       1.16927077e-04      -2.13823981e-03 
      -1.08302359e-04       1.16927077e-04      -2.13823981e-03 
       2.02713775e-05       1.37170994e-05      -7.51010860e-04 
       2.02713775e-05       1.37170994e-05      -7.51010860e-04 
       2.02713775e-05       1.37170994e-05      -7.51010860e-04 
       2.02713775e-05       1.37170994e-05      -7.51010860e-04 
      -2.16604718e-04       2.33854153e-04      -4.27647963e-03 
      -2.16604718e-04       2.33854153e-04      -4.27647963e-03 
      -2.16604718e-04       2.33854153e-04      -4.27647963e-03 
      -2.16604718e-04       2.33854153e-04      -4.27647963e-03 
       2.02713775e-05       1.37170994e-05      -7.51010860e-04 
       2.02713775e-05       1.37170994e-05      -7.51010860e-04 
       2.02713775e-05       1.37170994e-05      -7.51010860e-04 
       2.02713775e-05       1.37170994e-05      -7.51010860e-04 
      -2.16604718e-04       2.33854153e-04      -4.27647963e-03 
      -2.16604718e-04       2.33854153e-04      -4.27647963e-03 
      -2.16604718e-04       2.33854153e-04      -4.27647963e-03 
      -2.16604718e-04       2.33854153e-04      -4.27647963e-03 
      -9.81666701e-05       1.23785626e-04      -2.51374524e-03 
      -9.81666701e-05       1.23785626e-04      -2.51374524e-03 
      -9.81666701e-05       1.23785626e-04      -2.51374524e-03 
      -9.81666701e-05       1.23785626e-04      -2.51374524e-03 
       2.02713775e-05       1.37170994e-05      -7.51010860e-04 
       2.02713775e-05       1.37170994e-05      -7.51010860e-04 
       2.02713775e-05       1.37170994e-05      -7.51010860e-04 
       2.02713775e-05       1.37170994e-05      -7.51010860e-04 
      -2.15526253e-04      -1.98501516e-04      -4.21214513e-03 
      -2.15526253e-04      -1.98501516e-04      -4.21214513e-03 
      -2.15526253e-04      -1.98501516e-04      -4.21214513e-03 
      -2.15526253e-04      -1.98501516e-04      -4.21214513e-03 
       2.02713775e-05       1.37170994e-05      -7.51010860e-04 
       2.02713775e-05       1.37170994e-05      -7.51010860e-04 
       2.02713775e-05       1.37170994e-05      -7.51010860e-04 
       2.02713775e-05       1.37170994e-05      -7.51010860e-04 
      -2.15526253e-04      -1.98501516e-04      -4.21214513e-03 
      -2.15526253e-04      -1.98501516e-04      -4.21214513e-03 
      -2.15526253e-04      -1.98501516e-04      -4.21214513e-03 
      -2.15526253e-04      -1.98501516e-04      -4.21214513e-03 
      -9.76274376e-05      -9.23922082e-05      -2.48157800e-03 
      -9.76274376e-05      -9.23922082e-05      -2.48157800e-03 
      -9.76274376e-05      -9.23922082e-05      -2.48157800e-03 
      -9.76274376e-05      -9.23922082e-05      -2.48157800e-03 
      -2.06435358e-05       1.37172907e-05      -7.51050076e-04 
      -2.06435358e-05       1.37172907e-05      -7.51050076e-04 
      -2.06435358e-05       1.37172907e-05      -7.51050076e-04 
      -2.06435358e-05       1.37172907e-05      -7.51050076e-04 
       2.16115879e-04       2.33873863e-04      -4.27694353e-03 
       2.16115879e-04       2.33873863e-04      -4.27694353e-03 
       2.16115879e-04       2.33873863e-04      -4.27694353e-03 
       2.16115879e-04       2.33873863e-04      -4.27694353e-03 
      -2.06435358e-05       1.37172907e-05      -7.51050076e-04 
      -2.06435358e-05       1.37172907e-05      -7.51050076e-04 
      -2.06435358e-05       1.37172907e-05      -7.51050076e-04 
      -2.06435358e-05       1.37172907e-05      -7.51050076e-04 
       2.16115879e-04       2.33873863e-04      -4.27694353e-03 
       2.16115879e-04       2.33873863e-04      -4.27694353e-03 
       2.16115879e-04       2.33873863e-04      -4.27694353e-03 
       2.16115879e-04       2.33873863e-04      -4.27694353e-03 
       9.77361715e-05       1.23795577e-04      -2.51399681e-03 
       9.77361715e-05       1.23795577e-04      -2.51399681e-03 
       9.77361715e-05       1.23795577e-04      -2.51399681e-03 
       9.77361715e-05       1.23795577e-04      -2.51399681e-03 
      -2.06435358e-05       1.37172907e-05      -7.51050076e-04 
      -2.06435358e-05       1.37172907e-05      -7.51050076e-04 
      -2.06435358e-05       1.37172907e-05      -7.51050076e-04 
      -2.06435358e-05       1.37172907e-05      -7.51050076e-04 
      -1.85931675e-07       3.45880057e-05      -7.52505643e-04 
      -1.85931675e-07       3.45880057e-05      -7.52505643e-04 