# vtk DataFile Version 2.0
./output/Static_Tower/Static_Tower_0009.vtk
ASCII
DATASET UNSTRUCTURED_GRID

POINTS 13260 float
      -4.427464e+00       4.404287e+00      -9.630390e-03 
      -4.400659e+00       4.406971e+00      -9.630390e-03 
      -4.402536e+00       4.425713e+00       9.630390e-03 
      -4.429341e+00       4.423029e+00       9.630390e-03 
      -3.985324e+00      -1.071302e-02       4.329438e+00 
      -3.958518e+00      -8.028567e-03       4.329438e+00 
      -3.960395e+00       1.071300e-02       4.348699e+00 
      -3.987201e+00       8.028547e-03       4.348699e+00 
      -4.413673e+00       4.401748e+00      -1.361943e-02 
      -4.396046e+00       4.416898e+00       0.000000e+00 
      -4.416327e+00       4.428252e+00       1.361943e-02 
      -4.433954e+00       4.413102e+00       0.000000e+00 
      -3.971532e+00      -1.325230e-02       4.325449e+00 
      -3.953905e+00       1.898183e-03       4.339068e+00 
      -3.974187e+00       1.325228e-02       4.352688e+00 
      -3.991814e+00      -1.898203e-03       4.339068e+00 
      -4.206394e+00       2.196787e+00       2.159904e+00 
      -4.179588e+00       2.199471e+00       2.159904e+00 
      -4.181465e+00       2.218213e+00       2.179165e+00 
      -4.208271e+00       2.215529e+00       2.179165e+00 
       4.400662e+00       4.406966e+00      -9.630028e-03 
       4.427468e+00       4.404291e+00      -9.630028e-03 
       4.429338e+00       4.423034e+00       9.630028e-03 
       4.402532e+00       4.425709e+00       9.630028e-03 
       3.960200e+00      -8.034335e-03       4.329609e+00 
       3.987007e+00      -1.070869e-02       4.329609e+00 
       3.988876e+00       8.034314e-03       4.348869e+00 
       3.962070e+00       1.070867e-02       4.348869e+00 
       4.413678e+00       4.401747e+00      -1.361892e-02 
       4.433955e+00       4.413109e+00       0.000000e+00 
       4.416322e+00       4.428253e+00       1.361892e-02 
       4.396045e+00       4.416891e+00       0.000000e+00 
       3.973216e+00      -1.325332e-02       4.325620e+00 
       3.993493e+00      -1.891067e-03       4.339239e+00 
       3.975860e+00       1.325330e-02       4.352858e+00 
       3.955583e+00       1.891046e-03       4.339239e+00 
       4.180431e+00       2.199466e+00       2.159990e+00 
       4.207237e+00       2.196791e+00       2.159990e+00 
       4.209107e+00       2.215534e+00       2.179250e+00 
       4.182301e+00       2.218209e+00       2.179250e+00 
      -4.400659e+00      -4.406971e+00      -9.630390e-03 
      -4.427464e+00      -4.404287e+00      -9.630390e-03 
      -4.429341e+00      -4.423029e+00       9.630390e-03 
      -4.402536e+00      -4.425713e+00       9.630390e-03 
      -3.958518e+00       8.028547e-03       4.329438e+00 
      -3.985324e+00       1.071300e-02       4.329438e+00 
      -3.987201e+00      -8.028567e-03       4.348699e+00 
      -3.960395e+00      -1.071302e-02       4.348699e+00 
      -4.413673e+00      -4.401748e+00      -1.361943e-02 
      -4.433954e+00      -4.413102e+00       0.000000e+00 
      -4.416327e+00      -4.428252e+00       1.361943e-02 
      -4.396046e+00      -4.416898e+00       0.000000e+00 
      -3.971532e+00       1.325228e-02       4.325449e+00 
      -3.991814e+00       1.898183e-03       4.339068e+00 
      -3.974187e+00      -1.325230e-02       4.352688e+00 
      -3.953905e+00      -1.898203e-03       4.339068e+00 
      -4.179588e+00      -2.199471e+00       2.159904e+00 
      -4.206394e+00      -2.196787e+00       2.159904e+00 
      -4.208271e+00      -2.215529e+00       2.179165e+00 
      -4.181465e+00      -2.218213e+00       2.179165e+00 
      -4.406969e+00       4.400660e+00      -9.631073e-03 
      -4.404290e+00       4.427467e+00      -9.631073e-03 
      -4.423031e+00       4.429340e+00       9.631073e-03 
      -4.425710e+00       4.402533e+00       9.631073e-03 
       8.849126e-03       3.959359e+00       4.329523e+00 
       1.152804e-02       3.986165e+00       4.329523e+00 
      -7.212523e-03       3.988038e+00       4.348785e+00 
      -9.891435e-03       3.961232e+00       4.348785e+00 
      -4.401748e+00       4.413676e+00      -1.362039e-02 
      -4.413106e+00       4.433955e+00       0.000000e+00 
      -4.428252e+00       4.416324e+00       1.362039e-02 
      -4.416894e+00       4.396045e+00       0.000000e+00 
       1.406988e-02       3.972374e+00       4.325533e+00 
       2.712578e-03       3.992654e+00       4.339154e+00 
      -1.243328e-02       3.975023e+00       4.352774e+00 
      -1.075976e-03       3.954744e+00       4.339154e+00 
      -2.199060e+00       4.180010e+00       2.159946e+00 
      -2.196381e+00       4.206816e+00       2.159946e+00 
      -2.215122e+00       4.208689e+00       2.179208e+00 
      -2.217801e+00       4.181883e+00       2.179208e+00 
      -4.404290e+00      -4.427467e+00      -9.631073e-03 
      -4.406969e+00      -4.400660e+00      -9.631073e-03 
      -4.425710e+00      -4.402533e+00       9.631073e-03 
      -4.423031e+00      -4.429340e+00       9.631073e-03 
       1.152804e-02      -3.986165e+00       4.329523e+00 
       8.849126e-03      -3.959359e+00       4.329523e+00 
      -9.891436e-03      -3.961232e+00       4.348785e+00 
      -7.212524e-03      -3.988038e+00       4.348785e+00 
      -4.401748e+00      -4.413676e+00      -1.362039e-02 
      -4.416894e+00      -4.396045e+00       0.000000e+00 
      -4.428252e+00      -4.416324e+00       1.362039e-02 
      -4.413106e+00      -4.433955e+00       0.000000e+00 
       1.406988e-02      -3.972374e+00       4.325533e+00 
      -1.075976e-03      -3.954744e+00       4.339154e+00 
      -1.243328e-02      -3.975023e+00       4.352774e+00 
       2.712578e-03      -3.992654e+00       4.339154e+00 
      -2.196381e+00      -4.206816e+00       2.159946e+00 
      -2.199060e+00      -4.180010e+00       2.159946e+00 
      -2.217801e+00      -4.181883e+00       2.179208e+00 
      -2.215122e+00      -4.208689e+00       2.179208e+00 
       4.404288e+00       4.427466e+00      -9.629345e-03 
       4.406968e+00       4.400660e+00      -9.629345e-03 
       4.425712e+00       4.402534e+00       9.629345e-03 
       4.423032e+00       4.429340e+00       9.629345e-03 
      -9.893651e-03       3.986165e+00       4.329524e+00 
      -7.213755e-03       3.959359e+00       4.329524e+00 
       1.153025e-02       3.961233e+00       4.348783e+00 
       8.850358e-03       3.988039e+00       4.348783e+00 
       4.401746e+00       4.413675e+00      -1.361795e-02 
       4.416895e+00       4.396045e+00       0.000000e+00 
       4.428254e+00       4.416325e+00       1.361795e-02 
       4.413105e+00       4.433955e+00       0.000000e+00 
      -1.243571e-02       3.972374e+00       4.325536e+00 
       2.713274e-03       3.954744e+00       4.339154e+00 
       1.407232e-02       3.975024e+00       4.352772e+00 
      -1.076671e-03       3.992654e+00       4.339154e+00 
       2.197197e+00       4.206815e+00       2.159947e+00 
       2.199877e+00       4.180009e+00       2.159947e+00 
       2.218621e+00       4.181883e+00       2.179206e+00 
       2.215941e+00       4.208689e+00       2.179206e+00 
       4.427468e+00      -4.404291e+00      -9.630028e-03 
       4.400662e+00      -4.406966e+00      -9.630028e-03 
       4.402532e+00      -4.425709e+00       9.630028e-03 
       4.429338e+00      -4.423034e+00       9.630028e-03 
       3.987007e+00       1.070867e-02       4.329609e+00 
       3.960200e+00       8.034314e-03       4.329609e+00 
       3.962070e+00      -1.070869e-02       4.348869e+00 
       3.988876e+00      -8.034335e-03       4.348869e+00 
       4.413678e+00      -4.401747e+00      -1.361892e-02 
       4.396045e+00      -4.416891e+00       0.000000e+00 
       4.416322e+00      -4.428253e+00       1.361892e-02 
       4.433955e+00      -4.413109e+00       0.000000e+00 
       3.973216e+00       1.325330e-02       4.325620e+00 
       3.955583e+00      -1.891067e-03       4.339239e+00 
       3.975860e+00      -1.325332e-02       4.352858e+00 
       3.993493e+00       1.891046e-03       4.339239e+00 
       4.207237e+00      -2.196791e+00       2.159990e+00 
       4.180431e+00      -2.199466e+00       2.159990e+00 
       4.182301e+00      -2.218209e+00       2.179250e+00 
       4.209107e+00      -2.215534e+00       2.179250e+00 
       4.406968e+00      -4.400660e+00      -9.629345e-03 
       4.404288e+00      -4.427466e+00      -9.629345e-03 
       4.423032e+00      -4.429340e+00       9.629345e-03 
       4.425712e+00      -4.402534e+00       9.629345e-03 
      -7.213756e-03      -3.959359e+00       4.329524e+00 
      -9.893651e-03      -3.986165e+00       4.329524e+00 
       8.850358e-03      -3.988039e+00       4.348783e+00 
       1.153025e-02      -3.961233e+00       4.348783e+00 
       4.401746e+00      -4.413675e+00      -1.361795e-02 
       4.413105e+00      -4.433955e+00       0.000000e+00 
       4.428254e+00      -4.416325e+00       1.361795e-02 
       4.416895e+00      -4.396045e+00       0.000000e+00 
      -1.243571e-02      -3.972374e+00       4.325536e+00 
      -1.076671e-03      -3.992654e+00       4.339154e+00 
       1.407232e-02      -3.975024e+00       4.352772e+00 
       2.713273e-03      -3.954744e+00       4.339154e+00 
       2.199877e+00      -4.180009e+00       2.159947e+00 
       2.197197e+00      -4.206815e+00       2.159947e+00 
       2.215941e+00      -4.208689e+00       2.179206e+00 
       2.218621e+00      -4.181883e+00       2.179206e+00 
      -4.381888e+00      -4.415208e+00      -3.353429e-03 
      -4.415131e+00      -4.381887e+00      -3.353429e-03 
      -4.448112e+00      -4.414792e+00       3.353429e-03 
      -4.414869e+00      -4.448113e+00       3.353429e-03 
      -3.939530e+00      -3.973880e+00       4.337144e+00 
      -3.972773e+00      -3.940559e+00       4.337144e+00 
      -4.005754e+00      -3.973464e+00       4.343850e+00 
[...]
POINT_DATA     13260 
VECTORS Displacements float
       0.00000000e+00       0.00000000e+00       0.00000000e+00 
       0.00000000e+00       0.00000000e+00       0.00000000e+00 
       0.00000000e+00       0.00000000e+00       0.00000000e+00 
       0.00000000e+00       0.00000000e+00       0.00000000e+00 
       8.40645887e-04      -1.00256432e-08      -1.31637039e-04 
       8.40645887e-04      -1.00256432e-08      -1.31637039e-04 
       8.40645887e-04      -1.00256432e-08      -1.31637039e-04 
       8.40645887e-04      -1.00256432e-08      -1.31637039e-04 
       0.00000000e+00       0.00000000e+00       0.00000000e+00 
       0.00000000e+00       0.00000000e+00       0.00000000e+00 
       0.00000000e+00       0.00000000e+00       0.00000000e+00 
       0.00000000e+00       0.00000000e+00       0.00000000e+00 
       8.40645887e-04      -1.00256432e-08      -1.31637039e-04 
       8.40645887e-04      -1.00256432e-08      -1.31637039e-04 
       8.40645887e-04      -1.00256432e-08      -1.31637039e-04 
       8.40645887e-04      -1.00256432e-08      -1.31637039e-04 
       4.20322944e-04      -5.01282159e-09      -6.58185195e-05 
       4.20322944e-04      -5.01282159e-09      -6.58185195e-05 
       4.20322944e-04      -5.01282159e-09      -6.58185195e-05 
       4.20322944e-04      -5.01282159e-09      -6.58185195e-05 
       0.00000000e+00       0.00000000e+00       0.00000000e+00 
       0.00000000e+00       0.00000000e+00       0.00000000e+00 
       0.00000000e+00       0.00000000e+00       0.00000000e+00 
       0.00000000e+00       0.00000000e+00       0.00000000e+00 
       8.38226495e-04      -1.05512634e-08       3.90793234e-05 
       8.38226495e-04      -1.05512634e-08       3.90793234e-05 
       8.38226495e-04      -1.05512634e-08       3.90793234e-05 
       8.38226495e-04      -1.05512634e-08       3.90793234e-05 
       0.00000000e+00       0.00000000e+00       0.00000000e+00 
       0.00000000e+00       0.00000000e+00       0.00000000e+00 
       0.00000000e+00       0.00000000e+00       0.00000000e+00 
       0.00000000e+00       0.00000000e+00       0.00000000e+00 
       8.38226495e-04      -1.05512634e-08       3.90793234e-05 
       8.38226495e-04      -1.05512634e-08       3.90793234e-05 
       8.38226495e-04      -1.05512634e-08       3.90793234e-05 
       8.38226495e-04      -1.05512634e-08       3.90793234e-05 
       4.19113248e-04      -5.27563170e-09       1.95396617e-05 
       4.19113248e-04      -5.27563170e-09       1.95396617e-05 
       4.19113248e-04      -5.27563170e-09       1.95396617e-05 
       4.19113248e-04      -5.27563170e-09       1.95396617e-05 
       0.00000000e+00       0.00000000e+00       0.00000000e+00 
       0.00000000e+00       0.00000000e+00       0.00000000e+00 
       0.00000000e+00       0.00000000e+00       0.00000000e+00 
       0.00000000e+00       0.00000000e+00       0.00000000e+00 
       8.40645887e-04      -1.00256432e-08      -1.31637039e-04 
       8.40645887e-04      -1.00256432e-08      -1.31637039e-04 
       8.40645887e-04      -1.00256432e-08      -1.31637039e-04 
       8.40645887e-04      -1.00256432e-08      -1.31637039e-04 
       0.00000000e+00       0.00000000e+00       0.00000000e+00 
       0.00000000e+00       0.00000000e+00       0.00000000e+00 
       0.00000000e+00       0.00000000e+00       0.00000000e+00 
       0.00000000e+00       0.00000000e+00       0.00000000e+00 
       8.40645887e-04      -1.00256432e-08      -1.31637039e-04 
       8.40645887e-04      -1.00256432e-08      -1.31637039e-04 
       8.40645887e-04      -1.00256432e-08      -1.31637039e-04 
       8.40645887e-04      -1.00256432e-08      -1.31637039e-04 
       4.20322944e-04      -5.01282159e-09      -6.58185195e-05 
       4.20322944e-04      -5.01282159e-09      -6.58185195e-05 
       4.20322944e-04      -5.01282159e-09      -6.58185195e-05 
       4.20322944e-04      -5.01282159e-09      -6.58185195e-05 
       0.00000000e+00       0.00000000e+00       0.00000000e+00 
       0.00000000e+00       0.00000000e+00       0.00000000e+00 
       0.00000000e+00       0.00000000e+00       0.00000000e+00 
       0.00000000e+00       0.00000000e+00       0.00000000e+00 
       8.18301462e-04      -1.23447584e-06      -4.64086548e-05 
       8.18301462e-04      -1.23447584e-06      -4.64086548e-05 
       8.18301462e-04      -1.23447584e-06      -4.64086548e-05 
       8.18301462e-04      -1.23447584e-06      -4.64086548e-05 
       0.00000000e+00       0.00000000e+00       0.00000000e+00 
       0.00000000e+00       0.00000000e+00       0.00000000e+00 
       0.00000000e+00       0.00000000e+00       0.00000000e+00 
       0.00000000e+00       0.00000000e+00       0.00000000e+00 
       8.18301462e-04      -1.23447584e-06      -4.64086548e-05 
       8.18301462e-04      -1.23447584e-06      -4.64086548e-05 
       8.18301462e-04      -1.23447584e-06      -4.64086548e-05 
       8.18301462e-04      -1.23447584e-06      -4.64086548e-05 
       4.09150731e-04      -6.17237922e-07      -2.32043274e-05 
       4.09150731e-04      -6.17237922e-07      -2.32043274e-05 
       4.09150731e-04      -6.17237922e-07      -2.32043274e-05 
       4.09150731e-04      -6.17237922e-07      -2.32043274e-05 
       0.00000000e+00       0.00000000e+00       0.00000000e+00 
       0.00000000e+00       0.00000000e+00       0.00000000e+00 
       0.00000000e+00       0.00000000e+00       0.00000000e+00 
       0.00000000e+00       0.00000000e+00       0.00000000e+00 
       8.18301022e-04       1.21389853e-06      -4.64065616e-05 
       8.18301022e-04       1.21389853e-06      -4.64065616e-05 
       8.18301022e-04       1.21389853e-06      -4.64065616e-05 
       8.18301022e-04       1.21389853e-06      -4.64065616e-05 
       0.00000000e+00       0.00000000e+00       0.00000000e+00 
       0.00000000e+00       0.00000000e+00       0.00000000e+00 
       0.00000000e+00       0.00000000e+00       0.00000000e+00 
       0.00000000e+00       0.00000000e+00       0.00000000e+00 
       8.18301022e-04       1.21389853e-06      -4.64065616e-05 
       8.18301022e-04       1.21389853e-06      -4.64065616e-05 
       8.18301022e-04       1.21389853e-06      -4.64065616e-05 
       8.18301022e-04       1.21389853e-06      -4.64065616e-05 
       4.09150511e-04       6.06949263e-07      -2.32032808e-05 
       4.09150511e-04       6.06949263e-07      -2.32032808e-05 
       4.09150511e-04       6.06949263e-07      -2.32032808e-05 
       4.09150511e-04       6.06949263e-07      -2.32032808e-05 
       0.00000000e+00       0.00000000e+00       0.00000000e+00 
       0.00000000e+00       0.00000000e+00       0.00000000e+00 
       0.00000000e+00       0.00000000e+00       0.00000000e+00 
       0.00000000e+00       0.00000000e+00       0.00000000e+00 
       8.18301462e-04      -1.23447584e-06      -4.64086548e-05 
       8.18301462e-04      -1.23447584e-06      -4.64086548e-05 
       8.18301462e-04      -1.23447584e-06      -4.64086548e-05 
       8.18301462e-04      -1.23447584e-06      -4.64086548e-05 
       0.00000000e+00       0.00000000e+00       0.00000000e+00 
       0.00000000e+00       0.00000000e+00       0.00000000e+00 
       0.00000000e+00       0.00000000e+00       0.00000000e+00 
       0.00000000e+00       0.00000000e+00       0.00000000e+00 
       8.18301462e-04      -1.23447584e-06      -4.64086548e-05 
       8.18301462e-04      -1.23447584e-06      -4.64086548e-05 
       8.18301462e-04      -1.23447584e-06      -4.64086548e-05 
       8.18301462e-04      -1.23447584e-06      -4.64086548e-05 
       4.09150731e-04      -6.17237922e-07      -2.32043274e-05 
       4.09150731e-04      -6.17237922e-07      -2.32043274e-05 
       4.09150731e-04      -6.17237922e-07      -2.32043274e-05 
       4.09150731e-04      -6.17237922e-07      -2.32043274e-05 
       0.00000000e+00       0.00000000e+00       0.00000000e+00 
       0.00000000e+00       0.00000000e+00       0.00000000e+00 
       0.00000000e+00       0.00000000e+00       0.00000000e+00 
       0.00000000e+00       0.00000000e+00       0.00000000e+00 
       8.38226495e-04      -1.05512634e-08       3.90793234e-05 
       8.38226495e-04      -1.05512634e-08       3.90793234e-05 
       8.38226495e-04      -1.05512634e-08       3.90793234e-05 
       8.38226495e-04      -1.05512634e-08       3.90793234e-05 
       0.00000000e+00       0.00000000e+00       0.00000000e+00 
       0.00000000e+00       0.00000000e+00       0.00000000e+00 
       0.00000000e+00       0.00000000e+00       0.00000000e+00 
       0.00000000e+00       0.00000000e+00       0.00000000e+00 
       8.38226495e-04      -1.05512634e-08       3.90793234e-05 
       8.38226495e-04      -1.05512634e-08       3.90793234e-05 
       8.38226495e-04      -1.05512634e-08       3.90793234e-05 
       8.38226495e-04      -1.05512634e-08       3.90793234e-05 
       4.19113248e-04      -5.27563170e-09       1.95396617e-05 
       4.19113248e-04      -5.27563170e-09       1.95396617e-05 
       4.19113248e-04      -5.27563170e-09       1.95396617e-05 
       4.19113248e-04      -5.27563170e-09       1.95396617e-05 
       0.00000000e+00       0.00000000e+00       0.00000000e+00 
       0.00000000e+00       0.00000000e+00       0.00000000e+00 
       0.00000000e+00       0.00000000e+00       0.00000000e+00 
       0.00000000e+00       0.00000000e+00       0.00000000e+00 
       8.18301022e-04       1.21389853e-06      -4.64065616e-05 
       8.18301022e-04       1.21389853e-06      -4.64065616e-05 
       8.18301022e-04       1.21389853e-06      -4.64065616e-05 
       8.18301022e-04       1.21389853e-06      -4.64065616e-05 
       0.00000000e+00       0.00000000e+00       0.00000000e+00 
       0.00000000e+00       0.00000000e+00       0.00000000e+00 
       0.00000000e+00       0.00000000e+00       0.00000000e+00 
       0.00000000e+00       0.00000000e+00       0.00000000e+00 
       8.18301022e-04       1.21389853e-06      -4.64065616e-05 
       8.18301022e-04       1.21389853e-06      -4.64065616e-05 
       8.18301022e-04       1.21389853e-06      -4.64065616e-05 
       8.18301022e-04       1.21389853e-06      -4.64065616e-05 
       4.09150511e-04       6.06949263e-07      -2.32032808e-05 
       4.09150511e-04       6.06949263e-07      -2.32032808e-05 
       4.09150511e-04       6.06949263e-07      -2.32032808e-05 
       4.09150511e-04       6.06949263e-07      -2.32032808e-05 
       0.00000000e+00       0.00000000e+00       0.00000000e+00 
       0.00000000e+00       0.00000000e+00       0.00000000e+00 
       0.00000000e+00       0.00000000e+00       0.00000000e+00 
       0.00000000e+00       0.00000000e+00       0.00000000e+00 
       1.05795507e-03       2.79418750e-05       1.29695489e-03 
       1.05795507e-03       2.79418750e-05       1.29695489e-03 
       1.05795507e-03       2.79418750e-05       1.29695489e-03 
       1.05795507e-03       2.79418750e-05       1.29695489e-03 
       0.00000000e+00       0.00000000e+00       0.00000000e+00 
       0.00000000e+00       0.00000000e+00       0.00000000e+00 
       0.00000000e+00       0.00000000e+00       0.00000000e+00 
       0.00000000e+00       0.00000000e+00       0.00000000e+00 
       1.05795507e-03       2.79418750e-05       1.29695489e-03 
       1.05795507e-03       2.79418750e-05       1.29695489e-03 
       1.05795507e-03       2.79418750e-05       1.29695489e-03 
       1.05795507e-03       2.79418750e-05       1.29695489e-03 
       5.28977537e-04       1.39709375e-05       6.48477443e-04 
       5.28977537e-04       1.39709375e-05       6.48477443e-04 
       5.28977537e-04       1.39709375e-05       6.48477443e-04 
       5.28977537e-04       1.39709375e-05       6.48477443e-04 
       0.00000000e+00       0.00000000e+00       0.00000000e+00 
       0.00000000e+00       0.00000000e+00       0.00000000e+00 
       0.00000000e+00       0.00000000e+00       0.00000000e+00 
       0.00000000e+00       0.00000000e+00       0.00000000e+00 
       1.07899783e-03      -4.56106442e-05      -1.64865177e-03 
       1.07899783e-03      -4.56106442e-05      -1.64865177e-03 
       1.07899783e-03      -4.56106442e-05      -1.64865177e-03 
       1.07899783e-03      -4.56106442e-05      -1.64865177e-03 
       0.00000000e+00       0.00000000e+00       0.00000000e+00 
       0.00000000e+00       0.00000000e+00       0.00000000e+00 
       0.00000000e+00       0.00000000e+00       0.00000000e+00 
       0.00000000e+00       0.00000000e+00       0.00000000e+00 
       1.07899783e-03      -4.56106442e-05      -1.64865177e-03 
       1.07899783e-03      -4.56106442e-05      -1.64865177e-03 
       1.07899783e-03      -4.56106442e-05      -1.64865177e-03 
       1.07899783e-03      -4.56106442e-05      -1.64865177e-03 
       5.39498917e-04      -2.28053221e-05      -8.24325884e-04 
       5.39498917e-04      -2.28053221e-05      -8.24325884e-04 
       5.39498917e-04      -2.28053221e-05      -8.24325884e-04 
       5.39498917e-04      -2.28053221e-05      -8.24325884e-04 
       0.00000000e+00       0.00000000e+00       0.00000000e+00 
       0.00000000e+00       0.00000000e+00       0.00000000e+00 
       0.00000000e+00       0.00000000e+00       0.00000000e+00 
       0.00000000e+00       0.00000000e+00       0.00000000e+00 
       1.07899960e-03       4.55826619e-05      -1.64867864e-03 
       1.07899960e-03       4.55826619e-05      -1.64867864e-03 
       1.07899960e-03       4.55826619e-05      -1.64867864e-03 
       1.07899960e-03       4.55826619e-05      -1.64867864e-03 
       0.00000000e+00       0.00000000e+00       0.00000000e+00 
       0.00000000e+00       0.00000000e+00       0.00000000e+00 
       0.00000000e+00       0.00000000e+00       0.00000000e+00 
       0.00000000e+00       0.00000000e+00       0.00000000e+00 
       1.07899960e-03       4.55826619e-05      -1.64867864e-03 
       1.07899960e-03       4.55826619e-05      -1.64867864e-03 
       1.07899960e-03       4.55826619e-05      -1.64867864e-03 
       1.07899960e-03       4.55826619e-05      -1.64867864e-03 
       5.39499800e-04       2.27913310e-05      -8.24339321e-04 
       5.39499800e-04       2.27913310e-05      -8.24339321e-04 
       5.39499800e-04       2.27913310e-05      -8.24339321e-04 
       5.39499800e-04       2.27913310e-05      -8.24339321e-04 
       0.00000000e+00       0.00000000e+00       0.00000000e+00 
       0.00000000e+00       0.00000000e+00       0.00000000e+00 
       0.00000000e+00       0.00000000e+00       0.00000000e+00 
       0.00000000e+00       0.00000000e+00       0.00000000e+00 
       1.05795439e-03      -2.79683837e-05       1.29692813e-03 
       1.05795439e-03      -2.79683837e-05       1.29692813e-03 
       1.05795439e-03      -2.79683837e-05       1.29692813e-03 
       1.05795439e-03      -2.79683837e-05       1.29692813e-03 
       0.00000000e+00       0.00000000e+00       0.00000000e+00 
       0.00000000e+00       0.00000000e+00       0.00000000e+00 
       0.00000000e+00       0.00000000e+00       0.00000000e+00 
       0.00000000e+00       0.00000000e+00       0.00000000e+00 
       1.05795439e-03      -2.79683837e-05       1.29692813e-03 
       1.05795439e-03      -2.79683837e-05       1.29692813e-03 
       1.05795439e-03      -2.79683837e-05       1.29692813e-03 
       1.05795439e-03      -2.79683837e-05       1.29692813e-03 
       5.28977197e-04      -1.39841918e-05       6.48464064e-04 
       5.28977197e-04      -1.39841918e-05       6.48464064e-04 
       5.28977197e-04      -1.39841918e-05       6.48464064e-04 
       5.28977197e-04      -1.39841918e-05       6.48464064e-04 
       8.40645887e-04      -1.00256432e-08      -1.31637039e-04 
       8.40645887e-04      -1.00256432e-08      -1.31637039e-04 
       8.40645887e-04      -1.00256432e-08      -1.31637039e-04 
       8.40645887e-04      -1.00256432e-08      -1.31637039e-04 
       1.05795439e-03      -2.79683837e-05       1.29692813e-03 
       1.05795439e-03      -2.79683837e-05       1.29692813e-03 
       1.05795439e-03      -2.79683837e-05       1.29692813e-03 
       1.05795439e-03      -2.79683837e-05       1.29692813e-03 
       8.40645887e-04      -1.00256432e-08      -1.31637039e-04 
       8.40645887e-04      -1.00256432e-08      -1.31637039e-04 
       8.40645887e-04      -1.00256432e-08      -1.31637039e-04 
       8.40645887e-04      -1.00256432e-08      -1.31637039e-04 
       1.05795439e-03      -2.79683837e-05       1.29692813e-03 
       1.05795439e-03      -2.79683837e-05       1.29692813e-03 
       1.05795439e-03      -2.79683837e-05       1.29692813e-03 
       1.05795439e-03      -2.79683837e-05       1.29692813e-03 
       9.49300141e-04      -1.39892047e-05       5.82645545e-04 
       9.49300141e-04      -1.39892047e-05       5.82645545e-04 
       9.49300141e-04      -1.39892047e-05       5.82645545e-04 
       9.49300141e-04      -1.39892047e-05       5.82645545e-04 
       8.40645887e-04      -1.00256432e-08      -1.31637039e-04 
       8.40645887e-04      -1.00256432e-08      -1.31637039e-04 
       8.40645887e-04      -1.00256432e-08      -1.31637039e-04 
       8.40645887e-04      -1.00256432e-08      -1.31637039e-04 
       1.05795507e-03       2.79418750e-05       1.29695489e-03 
       1.05795507e-03       2.79418750e-05       1.29695489e-03 
       1.05795507e-03       2.79418750e-05       1.29695489e-03 
       1.05795507e-03       2.79418750e-05       1.29695489e-03 
       8.40645887e-04      -1.00256432e-08      -1.31637039e-04 
       8.40645887e-04      -1.00256432e-08      -1.31637039e-04 
       8.40645887e-04      -1.00256432e-08      -1.31637039e-04 
       8.40645887e-04      -1.00256432e-08      -1.31637039e-04 
       1.05795507e-03       2.79418750e-05       1.29695489e-03 
       1.05795507e-03       2.79418750e-05       1.29695489e-03 
       1.05795507e-03       2.79418750e-05       1.29695489e-03 
       1.05795507e-03       2.79418750e-05       1.29695489e-03 
       9.49300481e-04       1.39659247e-05       5.82658923e-04 
       9.49300481e-04       1.39659247e-05       5.82658923e-04 
       9.49300481e-04       1.39659247e-05       5.82658923e-04 
       9.49300481e-04       1.39659247e-05       5.82658923e-04 
       8.38226495e-04      -1.05512634e-08       3.90793234e-05 
       8.38226495e-04      -1.05512634e-08       3.90793234e-05 
       8.38226495e-04      -1.05512634e-08       3.90793234e-05 
       8.38226495e-04      -1.05512634e-08       3.90793234e-05 
       1.07899960e-03       4.55826619e-05      -1.64867864e-03 
       1.07899960e-03       4.55826619e-05      -1.64867864e-03 
       1.07899960e-03       4.55826619e-05      -1.64867864e-03 
       1.07899960e-03       4.55826619e-05      -1.64867864e-03 
       8.38226495e-04      -1.05512634e-08       3.90793234e-05 
       8.38226495e-04      -1.05512634e-08       3.90793234e-05 
       8.38226495e-04      -1.05512634e-08       3.90793234e-05 
       8.38226495e-04      -1.05512634e-08       3.90793234e-05 
       1.07899960e-03       4.55826619e-05      -1.64867864e-03 
       1.07899960e-03       4.55826619e-05      -1.64867864e-03 
       1.07899960e-03       4.55826619e-05      -1.64867864e-03 
       1.07899960e-03       4.55826619e-05      -1.64867864e-03 
       9.58613048e-04       2.27860553e-05      -8.04799659e-04 
       9.58613048e-04       2.27860553e-05      -8.04799659e-04 
       9.58613048e-04       2.27860553e-05      -8.04799659e-04 
       9.58613048e-04       2.27860553e-05      -8.04799659e-04 
       8.38226495e-04      -1.05512634e-08       3.90793234e-05 
       8.38226495e-04      -1.05512634e-08       3.90793234e-05 
       8.38226495e-04      -1.05512634e-08       3.90793234e-05 
       8.38226495e-04      -1.05512634e-08       3.90793234e-05 
       8.18301022e-04       1.21389853e-06      -4.64065616e-05 
       8.18301022e-04       1.21389853e-06      -4.64065616e-05 