# vtk DataFile Version 2.0
./output/Static_Tower/Static_Tower_0008.vtk
ASCII
DATASET UNSTRUCTURED_GRID

POINTS 13260 float
      -4.335799e+00       4.312527e+00      -9.534957e-03 
      -4.309007e+00       4.315350e+00      -9.534957e-03 
      -4.311001e+00       4.334273e+00       9.534957e-03 
      -4.337793e+00       4.331450e+00       9.534957e-03 
      -3.880264e+00      -1.087367e-02       4.328363e+00 
      -3.853472e+00      -8.050800e-03       4.328363e+00 
      -3.855466e+00       1.087297e-02       4.347433e+00 
      -3.882258e+00       8.050101e-03       4.347433e+00 
      -4.321990e+00       4.310019e+00      -1.348447e-02 
      -4.304456e+00       4.325396e+00       0.000000e+00 
      -4.324810e+00       4.336781e+00       1.348447e-02 
      -4.342344e+00       4.321404e+00       0.000000e+00 
      -3.866455e+00      -1.338148e-02       4.324414e+00 
      -3.848921e+00       1.995723e-03       4.337898e+00 
      -3.869275e+00       1.338078e-02       4.351383e+00 
      -3.886809e+00      -1.996423e-03       4.337898e+00 
      -4.108031e+00       2.150827e+00       2.159414e+00 
      -4.081240e+00       2.153649e+00       2.159414e+00 
      -4.083234e+00       2.172573e+00       2.178484e+00 
      -4.110025e+00       2.169750e+00       2.178484e+00 
       4.309007e+00       4.315350e+00      -9.534957e-03 
       4.335799e+00       4.312527e+00      -9.534957e-03 
       4.337793e+00       4.331450e+00       9.534957e-03 
       4.311001e+00       4.334273e+00       9.534957e-03 
       3.853472e+00      -8.050798e-03       4.328363e+00 
       3.880263e+00      -1.087368e-02       4.328363e+00 
       3.882257e+00       8.050098e-03       4.347433e+00 
       3.855465e+00       1.087298e-02       4.347433e+00 
       4.321990e+00       4.310019e+00      -1.348447e-02 
       4.342344e+00       4.321404e+00       0.000000e+00 
       4.324810e+00       4.336781e+00       1.348447e-02 
       4.304456e+00       4.325396e+00       0.000000e+00 
       3.866454e+00      -1.338148e-02       4.324414e+00 
       3.886809e+00      -1.996426e-03       4.337898e+00 
       3.869274e+00       1.338078e-02       4.351383e+00 
       3.848920e+00       1.995726e-03       4.337898e+00 
       4.081239e+00       2.153649e+00       2.159414e+00 
       4.108031e+00       2.150826e+00       2.159414e+00 
       4.110025e+00       2.169750e+00       2.178484e+00 
       4.083233e+00       2.172573e+00       2.178484e+00 
      -4.309007e+00      -4.315350e+00      -9.534957e-03 
      -4.335799e+00      -4.312527e+00      -9.534957e-03 
      -4.337793e+00      -4.331450e+00       9.534957e-03 
      -4.311001e+00      -4.334273e+00       9.534957e-03 
      -3.853472e+00       8.050101e-03       4.328363e+00 
      -3.880264e+00       1.087298e-02       4.328363e+00 
      -3.882258e+00      -8.050801e-03       4.347433e+00 
      -3.855466e+00      -1.087367e-02       4.347433e+00 
      -4.321990e+00      -4.310019e+00      -1.348446e-02 
      -4.342344e+00      -4.321404e+00       0.000000e+00 
      -4.324810e+00      -4.336781e+00       1.348446e-02 
      -4.304456e+00      -4.325396e+00       0.000000e+00 
      -3.866455e+00       1.338078e-02       4.324414e+00 
      -3.886809e+00       1.995724e-03       4.337898e+00 
      -3.869275e+00      -1.338148e-02       4.351383e+00 
      -3.848921e+00      -1.996423e-03       4.337898e+00 
      -4.081240e+00      -2.153650e+00       2.159414e+00 
      -4.108031e+00      -2.150827e+00       2.159414e+00 
      -4.110025e+00      -2.169751e+00       2.178484e+00 
      -4.083234e+00      -2.172574e+00       2.178484e+00 
      -4.315350e+00       4.309007e+00      -9.534957e-03 
      -4.312527e+00       4.335799e+00      -9.534957e-03 
      -4.331450e+00       4.337793e+00       9.534957e-03 
      -4.334273e+00       4.311001e+00       9.534957e-03 
       8.050098e-03       3.853472e+00       4.328363e+00 
       1.087298e-02       3.880263e+00       4.328363e+00 
      -8.050799e-03       3.882257e+00       4.347433e+00 
      -1.087368e-02       3.855465e+00       4.347433e+00 
      -4.310019e+00       4.321990e+00      -1.348447e-02 
      -4.321404e+00       4.342344e+00       0.000000e+00 
      -4.336781e+00       4.324810e+00       1.348447e-02 
      -4.325396e+00       4.304456e+00       0.000000e+00 
       1.338078e-02       3.866454e+00       4.324414e+00 
       1.995726e-03       3.886809e+00       4.337898e+00 
      -1.338148e-02       3.869274e+00       4.351383e+00 
      -1.996427e-03       3.848920e+00       4.337898e+00 
      -2.153650e+00       4.081239e+00       2.159414e+00 
      -2.150827e+00       4.108031e+00       2.159414e+00 
      -2.169751e+00       4.110025e+00       2.178484e+00 
      -2.172574e+00       4.083233e+00       2.178484e+00 
      -4.312527e+00      -4.335799e+00      -9.534957e-03 
      -4.315350e+00      -4.309007e+00      -9.534957e-03 
      -4.334273e+00      -4.311001e+00       9.534957e-03 
      -4.331450e+00      -4.337793e+00       9.534957e-03 
       1.087297e-02      -3.880264e+00       4.328363e+00 
       8.050100e-03      -3.853472e+00       4.328363e+00 
      -1.087368e-02      -3.855466e+00       4.347433e+00 
      -8.050802e-03      -3.882258e+00       4.347433e+00 
      -4.310019e+00      -4.321990e+00      -1.348446e-02 
      -4.325396e+00      -4.304456e+00       0.000000e+00 
      -4.336781e+00      -4.324810e+00       1.348446e-02 
      -4.321404e+00      -4.342344e+00       0.000000e+00 
       1.338078e-02      -3.866455e+00       4.324414e+00 
      -1.996424e-03      -3.848921e+00       4.337898e+00 
      -1.338148e-02      -3.869275e+00       4.351383e+00 
       1.995723e-03      -3.886809e+00       4.337898e+00 
      -2.150827e+00      -4.108031e+00       2.159414e+00 
      -2.153650e+00      -4.081240e+00       2.159414e+00 
      -2.172574e+00      -4.083234e+00       2.178484e+00 
      -2.169751e+00      -4.110025e+00       2.178484e+00 
       4.312527e+00       4.335799e+00      -9.534957e-03 
       4.315350e+00       4.309007e+00      -9.534957e-03 
       4.334273e+00       4.311001e+00       9.534957e-03 
       4.331450e+00       4.337793e+00       9.534957e-03 
      -1.087368e-02       3.880263e+00       4.328363e+00 
      -8.050799e-03       3.853472e+00       4.328363e+00 
       1.087298e-02       3.855465e+00       4.347433e+00 
       8.050097e-03       3.882257e+00       4.347433e+00 
       4.310019e+00       4.321990e+00      -1.348447e-02 
       4.325396e+00       4.304456e+00       0.000000e+00 
       4.336781e+00       4.324810e+00       1.348447e-02 
       4.321404e+00       4.342344e+00       0.000000e+00 
      -1.338148e-02       3.866454e+00       4.324414e+00 
       1.995726e-03       3.848920e+00       4.337898e+00 
       1.338078e-02       3.869274e+00       4.351383e+00 
      -1.996427e-03       3.886809e+00       4.337898e+00 
       2.150826e+00       4.108031e+00       2.159414e+00 
       2.153649e+00       4.081239e+00       2.159414e+00 
       2.172573e+00       4.083233e+00       2.178484e+00 
       2.169750e+00       4.110025e+00       2.178484e+00 
       4.335799e+00      -4.312527e+00      -9.534957e-03 
       4.309007e+00      -4.315350e+00      -9.534957e-03 
       4.311001e+00      -4.334273e+00       9.534957e-03 
       4.337793e+00      -4.331450e+00       9.534957e-03 
       3.880263e+00       1.087298e-02       4.328363e+00 
       3.853472e+00       8.050099e-03       4.328363e+00 
       3.855465e+00      -1.087368e-02       4.347433e+00 
       3.882257e+00      -8.050798e-03       4.347433e+00 
       4.321990e+00      -4.310019e+00      -1.348447e-02 
       4.304456e+00      -4.325396e+00       0.000000e+00 
       4.324810e+00      -4.336781e+00       1.348447e-02 
       4.342344e+00      -4.321404e+00       0.000000e+00 
       3.866454e+00       1.338078e-02       4.324414e+00 
       3.848920e+00      -1.996426e-03       4.337898e+00 
       3.869274e+00      -1.338148e-02       4.351383e+00 
       3.886809e+00       1.995727e-03       4.337898e+00 
       4.108031e+00      -2.150827e+00       2.159414e+00 
       4.081239e+00      -2.153650e+00       2.159414e+00 
       4.083233e+00      -2.172574e+00       2.178484e+00 
       4.110025e+00      -2.169751e+00       2.178484e+00 
       4.315350e+00      -4.309007e+00      -9.534957e-03 
       4.312527e+00      -4.335799e+00      -9.534957e-03 
       4.331450e+00      -4.337793e+00       9.534957e-03 
       4.334273e+00      -4.311001e+00       9.534957e-03 
      -8.050801e-03      -3.853472e+00       4.328363e+00 
      -1.087367e-02      -3.880264e+00       4.328363e+00 
       8.050100e-03      -3.882258e+00       4.347433e+00 
       1.087297e-02      -3.855466e+00       4.347433e+00 
       4.310019e+00      -4.321990e+00      -1.348447e-02 
       4.321404e+00      -4.342344e+00       0.000000e+00 
       4.336781e+00      -4.324810e+00       1.348447e-02 
       4.325396e+00      -4.304456e+00       0.000000e+00 
      -1.338148e-02      -3.866455e+00       4.324414e+00 
      -1.996424e-03      -3.886809e+00       4.337898e+00 
       1.338078e-02      -3.869275e+00       4.351383e+00 
       1.995723e-03      -3.848921e+00       4.337898e+00 
       2.153649e+00      -4.081240e+00       2.159414e+00 
       2.150827e+00      -4.108031e+00       2.159414e+00 
       2.169750e+00      -4.110025e+00       2.178484e+00 
       2.172573e+00      -4.083234e+00       2.178484e+00 
      -4.290298e+00      -4.323581e+00      -3.459059e-03 
      -4.323581e+00      -4.290298e+00      -3.459059e-03 
      -4.356502e+00      -4.323219e+00       3.459059e-03 
      -4.323219e+00      -4.356502e+00       3.459059e-03 
      -3.835149e+00      -3.868434e+00       4.328324e+00 
      -3.868432e+00      -3.835152e+00       4.328324e+00 
      -3.901353e+00      -3.868073e+00       4.335242e+00 
[...]
POINT_DATA     13260 
VECTORS Displacements float
       0.00000000e+00       0.00000000e+00       0.00000000e+00 
       0.00000000e+00       0.00000000e+00       0.00000000e+00 
       0.00000000e+00       0.00000000e+00       0.00000000e+00 
       0.00000000e+00       0.00000000e+00       0.00000000e+00 
       3.51044675e-05      -3.49852464e-07      -1.30188022e-03 
       3.51044675e-05      -3.49852464e-07      -1.30188022e-03 
       3.51044675e-05      -3.49852464e-07      -1.30188022e-03 
       3.51044675e-05      -3.49852464e-07      -1.30188022e-03 
       0.00000000e+00       0.00000000e+00       0.00000000e+00 
       0.00000000e+00       0.00000000e+00       0.00000000e+00 
       0.00000000e+00       0.00000000e+00       0.00000000e+00 
       0.00000000e+00       0.00000000e+00       0.00000000e+00 
       3.51044675e-05      -3.49852464e-07      -1.30188022e-03 
       3.51044675e-05      -3.49852464e-07      -1.30188022e-03 
       3.51044675e-05      -3.49852464e-07      -1.30188022e-03 
       3.51044675e-05      -3.49852464e-07      -1.30188022e-03 
       1.75522337e-05      -1.74926232e-07      -6.50940110e-04 
       1.75522337e-05      -1.74926232e-07      -6.50940110e-04 
       1.75522337e-05      -1.74926232e-07      -6.50940110e-04 
       1.75522337e-05      -1.74926232e-07      -6.50940110e-04 
       0.00000000e+00       0.00000000e+00       0.00000000e+00 
       0.00000000e+00       0.00000000e+00       0.00000000e+00 
       0.00000000e+00       0.00000000e+00       0.00000000e+00 
       0.00000000e+00       0.00000000e+00       0.00000000e+00 
      -3.58058238e-05      -3.49850865e-07      -1.30195429e-03 
      -3.58058238e-05      -3.49850865e-07      -1.30195429e-03 
      -3.58058238e-05      -3.49850865e-07      -1.30195429e-03 
      -3.58058238e-05      -3.49850865e-07      -1.30195429e-03 
       0.00000000e+00       0.00000000e+00       0.00000000e+00 
       0.00000000e+00       0.00000000e+00       0.00000000e+00 
       0.00000000e+00       0.00000000e+00       0.00000000e+00 
       0.00000000e+00       0.00000000e+00       0.00000000e+00 
      -3.58058238e-05      -3.49850865e-07      -1.30195429e-03 
      -3.58058238e-05      -3.49850865e-07      -1.30195429e-03 
      -3.58058238e-05      -3.49850865e-07      -1.30195429e-03 
      -3.58058238e-05      -3.49850865e-07      -1.30195429e-03 
      -1.79029119e-05      -1.74925432e-07      -6.50977145e-04 
      -1.79029119e-05      -1.74925432e-07      -6.50977145e-04 
      -1.79029119e-05      -1.74925432e-07      -6.50977145e-04 
      -1.79029119e-05      -1.74925432e-07      -6.50977145e-04 
       0.00000000e+00       0.00000000e+00       0.00000000e+00 
       0.00000000e+00       0.00000000e+00       0.00000000e+00 
       0.00000000e+00       0.00000000e+00       0.00000000e+00 
       0.00000000e+00       0.00000000e+00       0.00000000e+00 
       3.51044675e-05      -3.49852464e-07      -1.30188022e-03 
       3.51044675e-05      -3.49852464e-07      -1.30188022e-03 
       3.51044675e-05      -3.49852464e-07      -1.30188022e-03 
       3.51044675e-05      -3.49852464e-07      -1.30188022e-03 
       0.00000000e+00       0.00000000e+00       0.00000000e+00 
       0.00000000e+00       0.00000000e+00       0.00000000e+00 
       0.00000000e+00       0.00000000e+00       0.00000000e+00 
       0.00000000e+00       0.00000000e+00       0.00000000e+00 
       3.51044675e-05      -3.49852464e-07      -1.30188022e-03 
       3.51044675e-05      -3.49852464e-07      -1.30188022e-03 
       3.51044675e-05      -3.49852464e-07      -1.30188022e-03 
       3.51044675e-05      -3.49852464e-07      -1.30188022e-03 
       1.75522337e-05      -1.74926232e-07      -6.50940110e-04 
       1.75522337e-05      -1.74926232e-07      -6.50940110e-04 
       1.75522337e-05      -1.74926232e-07      -6.50940110e-04 
       1.75522337e-05      -1.74926232e-07      -6.50940110e-04 
       0.00000000e+00       0.00000000e+00       0.00000000e+00 
       0.00000000e+00       0.00000000e+00       0.00000000e+00 
       0.00000000e+00       0.00000000e+00       0.00000000e+00 
       0.00000000e+00       0.00000000e+00       0.00000000e+00 
      -3.50540272e-07      -3.58044339e-05      -1.30194301e-03 
      -3.50540272e-07      -3.58044339e-05      -1.30194301e-03 
      -3.50540272e-07      -3.58044339e-05      -1.30194301e-03 
      -3.50540272e-07      -3.58044339e-05      -1.30194301e-03 
       0.00000000e+00       0.00000000e+00       0.00000000e+00 
       0.00000000e+00       0.00000000e+00       0.00000000e+00 
       0.00000000e+00       0.00000000e+00       0.00000000e+00 
       0.00000000e+00       0.00000000e+00       0.00000000e+00 
      -3.50540272e-07      -3.58044339e-05      -1.30194301e-03 
      -3.50540272e-07      -3.58044339e-05      -1.30194301e-03 
      -3.50540272e-07      -3.58044339e-05      -1.30194301e-03 
      -3.50540272e-07      -3.58044339e-05      -1.30194301e-03 
      -1.75270136e-07      -1.79022170e-05      -6.50971504e-04 
      -1.75270136e-07      -1.79022170e-05      -6.50971504e-04 
      -1.75270136e-07      -1.79022170e-05      -6.50971504e-04 
      -1.75270136e-07      -1.79022170e-05      -6.50971504e-04 
       0.00000000e+00       0.00000000e+00       0.00000000e+00 
       0.00000000e+00       0.00000000e+00       0.00000000e+00 
       0.00000000e+00       0.00000000e+00       0.00000000e+00 
       0.00000000e+00       0.00000000e+00       0.00000000e+00 
      -3.50541870e-07       3.51044578e-05      -1.30186909e-03 
      -3.50541870e-07       3.51044578e-05      -1.30186909e-03 
      -3.50541870e-07       3.51044578e-05      -1.30186909e-03 
      -3.50541870e-07       3.51044578e-05      -1.30186909e-03 
       0.00000000e+00       0.00000000e+00       0.00000000e+00 
       0.00000000e+00       0.00000000e+00       0.00000000e+00 
       0.00000000e+00       0.00000000e+00       0.00000000e+00 
       0.00000000e+00       0.00000000e+00       0.00000000e+00 
      -3.50541870e-07       3.51044578e-05      -1.30186909e-03 
      -3.50541870e-07       3.51044578e-05      -1.30186909e-03 
      -3.50541870e-07       3.51044578e-05      -1.30186909e-03 
      -3.50541870e-07       3.51044578e-05      -1.30186909e-03 
      -1.75270935e-07       1.75522289e-05      -6.50934545e-04 
      -1.75270935e-07       1.75522289e-05      -6.50934545e-04 
      -1.75270935e-07       1.75522289e-05      -6.50934545e-04 
      -1.75270935e-07       1.75522289e-05      -6.50934545e-04 
       0.00000000e+00       0.00000000e+00       0.00000000e+00 
       0.00000000e+00       0.00000000e+00       0.00000000e+00 
       0.00000000e+00       0.00000000e+00       0.00000000e+00 
       0.00000000e+00       0.00000000e+00       0.00000000e+00 
      -3.50540272e-07      -3.58044339e-05      -1.30194301e-03 
      -3.50540272e-07      -3.58044339e-05      -1.30194301e-03 
      -3.50540272e-07      -3.58044339e-05      -1.30194301e-03 
      -3.50540272e-07      -3.58044339e-05      -1.30194301e-03 
       0.00000000e+00       0.00000000e+00       0.00000000e+00 
       0.00000000e+00       0.00000000e+00       0.00000000e+00 
       0.00000000e+00       0.00000000e+00       0.00000000e+00 
       0.00000000e+00       0.00000000e+00       0.00000000e+00 
      -3.50540272e-07      -3.58044339e-05      -1.30194301e-03 
      -3.50540272e-07      -3.58044339e-05      -1.30194301e-03 
      -3.50540272e-07      -3.58044339e-05      -1.30194301e-03 
      -3.50540272e-07      -3.58044339e-05      -1.30194301e-03 
      -1.75270136e-07      -1.79022170e-05      -6.50971504e-04 
      -1.75270136e-07      -1.79022170e-05      -6.50971504e-04 
      -1.75270136e-07      -1.79022170e-05      -6.50971504e-04 
      -1.75270136e-07      -1.79022170e-05      -6.50971504e-04 
       0.00000000e+00       0.00000000e+00       0.00000000e+00 
       0.00000000e+00       0.00000000e+00       0.00000000e+00 
       0.00000000e+00       0.00000000e+00       0.00000000e+00 
       0.00000000e+00       0.00000000e+00       0.00000000e+00 
      -3.58058238e-05      -3.49850865e-07      -1.30195429e-03 
      -3.58058238e-05      -3.49850865e-07      -1.30195429e-03 
      -3.58058238e-05      -3.49850865e-07      -1.30195429e-03 
      -3.58058238e-05      -3.49850865e-07      -1.30195429e-03 
       0.00000000e+00       0.00000000e+00       0.00000000e+00 
       0.00000000e+00       0.00000000e+00       0.00000000e+00 
       0.00000000e+00       0.00000000e+00       0.00000000e+00 
       0.00000000e+00       0.00000000e+00       0.00000000e+00 
      -3.58058238e-05      -3.49850865e-07      -1.30195429e-03 
      -3.58058238e-05      -3.49850865e-07      -1.30195429e-03 
      -3.58058238e-05      -3.49850865e-07      -1.30195429e-03 
      -3.58058238e-05      -3.49850865e-07      -1.30195429e-03 
      -1.79029119e-05      -1.74925432e-07      -6.50977145e-04 
      -1.79029119e-05      -1.74925432e-07      -6.50977145e-04 
      -1.79029119e-05      -1.74925432e-07      -6.50977145e-04 
      -1.79029119e-05      -1.74925432e-07      -6.50977145e-04 
       0.00000000e+00       0.00000000e+00       0.00000000e+00 
       0.00000000e+00       0.00000000e+00       0.00000000e+00 
       0.00000000e+00       0.00000000e+00       0.00000000e+00 
       0.00000000e+00       0.00000000e+00       0.00000000e+00 
      -3.50541870e-07       3.51044578e-05      -1.30186909e-03 
      -3.50541870e-07       3.51044578e-05      -1.30186909e-03 
      -3.50541870e-07       3.51044578e-05      -1.30186909e-03 
      -3.50541870e-07       3.51044578e-05      -1.30186909e-03 
       0.00000000e+00       0.00000000e+00       0.00000000e+00 
       0.00000000e+00       0.00000000e+00       0.00000000e+00 
       0.00000000e+00       0.00000000e+00       0.00000000e+00 
       0.00000000e+00       0.00000000e+00       0.00000000e+00 
      -3.50541870e-07       3.51044578e-05      -1.30186909e-03 
      -3.50541870e-07       3.51044578e-05      -1.30186909e-03 
      -3.50541870e-07       3.51044578e-05      -1.30186909e-03 
      -3.50541870e-07       3.51044578e-05      -1.30186909e-03 
      -1.75270935e-07       1.75522289e-05      -6.50934545e-04 
      -1.75270935e-07       1.75522289e-05      -6.50934545e-04 
      -1.75270935e-07       1.75522289e-05      -6.50934545e-04 
      -1.75270935e-07       1.75522289e-05      -6.50934545e-04 
       0.00000000e+00       0.00000000e+00       0.00000000e+00 
       0.00000000e+00       0.00000000e+00       0.00000000e+00 
       0.00000000e+00       0.00000000e+00       0.00000000e+00 
       0.00000000e+00       0.00000000e+00       0.00000000e+00 
      -3.51116876e-04      -3.53327983e-04      -7.41721727e-03 
      -3.51116876e-04      -3.53327983e-04      -7.41721727e-03 
      -3.51116876e-04      -3.53327983e-04      -7.41721727e-03 
      -3.51116876e-04      -3.53327983e-04      -7.41721727e-03 
       0.00000000e+00       0.00000000e+00       0.00000000e+00 
       0.00000000e+00       0.00000000e+00       0.00000000e+00 
       0.00000000e+00       0.00000000e+00       0.00000000e+00 
       0.00000000e+00       0.00000000e+00       0.00000000e+00 
      -3.51116876e-04      -3.53327983e-04      -7.41721727e-03 
      -3.51116876e-04      -3.53327983e-04      -7.41721727e-03 
      -3.51116876e-04      -3.53327983e-04      -7.41721727e-03 
      -3.51116876e-04      -3.53327983e-04      -7.41721727e-03 
      -1.75558438e-04      -1.76663992e-04      -3.70860864e-03 
      -1.75558438e-04      -1.76663992e-04      -3.70860864e-03 
      -1.75558438e-04      -1.76663992e-04      -3.70860864e-03 
      -1.75558438e-04      -1.76663992e-04      -3.70860864e-03 
       0.00000000e+00       0.00000000e+00       0.00000000e+00 
       0.00000000e+00       0.00000000e+00       0.00000000e+00 
       0.00000000e+00       0.00000000e+00       0.00000000e+00 
       0.00000000e+00       0.00000000e+00       0.00000000e+00 
       3.50195755e-04      -3.53358883e-04      -7.41808465e-03 
       3.50195755e-04      -3.53358883e-04      -7.41808465e-03 
       3.50195755e-04      -3.53358883e-04      -7.41808465e-03 
       3.50195755e-04      -3.53358883e-04      -7.41808465e-03 
       0.00000000e+00       0.00000000e+00       0.00000000e+00 
       0.00000000e+00       0.00000000e+00       0.00000000e+00 
       0.00000000e+00       0.00000000e+00       0.00000000e+00 
       0.00000000e+00       0.00000000e+00       0.00000000e+00 
       3.50195755e-04      -3.53358883e-04      -7.41808465e-03 
       3.50195755e-04      -3.53358883e-04      -7.41808465e-03 
       3.50195755e-04      -3.53358883e-04      -7.41808465e-03 
       3.50195755e-04      -3.53358883e-04      -7.41808465e-03 
       1.75097877e-04      -1.76679442e-04      -3.70904233e-03 
       1.75097877e-04      -1.76679442e-04      -3.70904233e-03 
       1.75097877e-04      -1.76679442e-04      -3.70904233e-03 
       1.75097877e-04      -1.76679442e-04      -3.70904233e-03 
       0.00000000e+00       0.00000000e+00       0.00000000e+00 
       0.00000000e+00       0.00000000e+00       0.00000000e+00 
       0.00000000e+00       0.00000000e+00       0.00000000e+00 
       0.00000000e+00       0.00000000e+00       0.00000000e+00 
       3.50225297e-04       3.52439579e-04      -7.41895046e-03 
       3.50225297e-04       3.52439579e-04      -7.41895046e-03 
       3.50225297e-04       3.52439579e-04      -7.41895046e-03 
       3.50225297e-04       3.52439579e-04      -7.41895046e-03 
       0.00000000e+00       0.00000000e+00       0.00000000e+00 
       0.00000000e+00       0.00000000e+00       0.00000000e+00 
       0.00000000e+00       0.00000000e+00       0.00000000e+00 
       0.00000000e+00       0.00000000e+00       0.00000000e+00 
       3.50225297e-04       3.52439579e-04      -7.41895046e-03 
       3.50225297e-04       3.52439579e-04      -7.41895046e-03 
       3.50225297e-04       3.52439579e-04      -7.41895046e-03 
       3.50225297e-04       3.52439579e-04      -7.41895046e-03 
       1.75112648e-04       1.76219790e-04      -3.70947523e-03 
       1.75112648e-04       1.76219790e-04      -3.70947523e-03 
       1.75112648e-04       1.76219790e-04      -3.70947523e-03 
       1.75112648e-04       1.76219790e-04      -3.70947523e-03 
       0.00000000e+00       0.00000000e+00       0.00000000e+00 
       0.00000000e+00       0.00000000e+00       0.00000000e+00 
       0.00000000e+00       0.00000000e+00       0.00000000e+00 
       0.00000000e+00       0.00000000e+00       0.00000000e+00 
      -3.51146412e-04       3.52408673e-04      -7.41808309e-03 
      -3.51146412e-04       3.52408673e-04      -7.41808309e-03 
      -3.51146412e-04       3.52408673e-04      -7.41808309e-03 
      -3.51146412e-04       3.52408673e-04      -7.41808309e-03 
       0.00000000e+00       0.00000000e+00       0.00000000e+00 
       0.00000000e+00       0.00000000e+00       0.00000000e+00 
       0.00000000e+00       0.00000000e+00       0.00000000e+00 
       0.00000000e+00       0.00000000e+00       0.00000000e+00 
      -3.51146412e-04       3.52408673e-04      -7.41808309e-03 
      -3.51146412e-04       3.52408673e-04      -7.41808309e-03 
      -3.51146412e-04       3.52408673e-04      -7.41808309e-03 
      -3.51146412e-04       3.52408673e-04      -7.41808309e-03 
      -1.75573206e-04       1.76204336e-04      -3.70904154e-03 
      -1.75573206e-04       1.76204336e-04      -3.70904154e-03 
      -1.75573206e-04       1.76204336e-04      -3.70904154e-03 
      -1.75573206e-04       1.76204336e-04      -3.70904154e-03 
       3.51044675e-05      -3.49852464e-07      -1.30188022e-03 
       3.51044675e-05      -3.49852464e-07      -1.30188022e-03 
       3.51044675e-05      -3.49852464e-07      -1.30188022e-03 
       3.51044675e-05      -3.49852464e-07      -1.30188022e-03 
      -3.51146412e-04       3.52408673e-04      -7.41808309e-03 
      -3.51146412e-04       3.52408673e-04      -7.41808309e-03 
      -3.51146412e-04       3.52408673e-04      -7.41808309e-03 
      -3.51146412e-04       3.52408673e-04      -7.41808309e-03 
       3.51044675e-05      -3.49852464e-07      -1.30188022e-03 
       3.51044675e-05      -3.49852464e-07      -1.30188022e-03 
       3.51044675e-05      -3.49852464e-07      -1.30188022e-03 
       3.51044675e-05      -3.49852464e-07      -1.30188022e-03 
      -3.51146412e-04       3.52408673e-04      -7.41808309e-03 
      -3.51146412e-04       3.52408673e-04      -7.41808309e-03 
      -3.51146412e-04       3.52408673e-04      -7.41808309e-03 
      -3.51146412e-04       3.52408673e-04      -7.41808309e-03 
      -1.58020972e-04       1.76029410e-04      -4.35998165e-03 
      -1.58020972e-04       1.76029410e-04      -4.35998165e-03 
      -1.58020972e-04       1.76029410e-04      -4.35998165e-03 
      -1.58020972e-04       1.76029410e-04      -4.35998165e-03 
       3.51044675e-05      -3.49852464e-07      -1.30188022e-03 
       3.51044675e-05      -3.49852464e-07      -1.30188022e-03 
       3.51044675e-05      -3.49852464e-07      -1.30188022e-03 
       3.51044675e-05      -3.49852464e-07      -1.30188022e-03 
      -3.51116876e-04      -3.53327983e-04      -7.41721727e-03 
      -3.51116876e-04      -3.53327983e-04      -7.41721727e-03 
      -3.51116876e-04      -3.53327983e-04      -7.41721727e-03 
      -3.51116876e-04      -3.53327983e-04      -7.41721727e-03 
       3.51044675e-05      -3.49852464e-07      -1.30188022e-03 
       3.51044675e-05      -3.49852464e-07      -1.30188022e-03 
       3.51044675e-05      -3.49852464e-07      -1.30188022e-03 
       3.51044675e-05      -3.49852464e-07      -1.30188022e-03 
      -3.51116876e-04      -3.53327983e-04      -7.41721727e-03 
      -3.51116876e-04      -3.53327983e-04      -7.41721727e-03 
      -3.51116876e-04      -3.53327983e-04      -7.41721727e-03 
      -3.51116876e-04      -3.53327983e-04      -7.41721727e-03 
      -1.58006204e-04      -1.76838918e-04      -4.35954875e-03 
      -1.58006204e-04      -1.76838918e-04      -4.35954875e-03 
      -1.58006204e-04      -1.76838918e-04      -4.35954875e-03 
      -1.58006204e-04      -1.76838918e-04      -4.35954875e-03 
      -3.58058238e-05      -3.49850865e-07      -1.30195429e-03 
      -3.58058238e-05      -3.49850865e-07      -1.30195429e-03 
      -3.58058238e-05      -3.49850865e-07      -1.30195429e-03 
      -3.58058238e-05      -3.49850865e-07      -1.30195429e-03 
       3.50225297e-04       3.52439579e-04      -7.41895046e-03 
       3.50225297e-04       3.52439579e-04      -7.41895046e-03 
       3.50225297e-04       3.52439579e-04      -7.41895046e-03 
       3.50225297e-04       3.52439579e-04      -7.41895046e-03 
      -3.58058238e-05      -3.49850865e-07      -1.30195429e-03 
      -3.58058238e-05      -3.49850865e-07      -1.30195429e-03 
      -3.58058238e-05      -3.49850865e-07      -1.30195429e-03 
      -3.58058238e-05      -3.49850865e-07      -1.30195429e-03 
       3.50225297e-04       3.52439579e-04      -7.41895046e-03 
       3.50225297e-04       3.52439579e-04      -7.41895046e-03 
       3.50225297e-04       3.52439579e-04      -7.41895046e-03 
       3.50225297e-04       3.52439579e-04      -7.41895046e-03 
       1.57209736e-04       1.76044864e-04      -4.36045237e-03 
       1.57209736e-04       1.76044864e-04      -4.36045237e-03 
       1.57209736e-04       1.76044864e-04      -4.36045237e-03 
       1.57209736e-04       1.76044864e-04      -4.36045237e-03 
      -3.58058238e-05      -3.49850865e-07      -1.30195429e-03 
      -3.58058238e-05      -3.49850865e-07      -1.30195429e-03 
      -3.58058238e-05      -3.49850865e-07      -1.30195429e-03 
      -3.58058238e-05      -3.49850865e-07      -1.30195429e-03 
      -3.50541870e-07       3.51044578e-05      -1.30186909e-03 
      -3.50541870e-07       3.51044578e-05      -1.30186909e-03 