# vtk DataFile Version 2.0
./output/Static_Tower/Static_Tower_0003.vtk
ASCII
DATASET UNSTRUCTURED_GRID

POINTS 13260 float
      -4.335799e+00       4.312526e+00      -9.533827e-03 
      -4.309007e+00       4.315348e+00      -9.533827e-03 
      -4.311001e+00       4.334274e+00       9.533827e-03 
      -4.337793e+00       4.331452e+00       9.533827e-03 
      -3.880291e+00      -1.086958e-02       4.329387e+00 
      -3.853500e+00      -8.046869e-03       4.329387e+00 
      -3.855494e+00       1.087917e-02       4.348454e+00 
      -3.882285e+00       8.056462e-03       4.348454e+00 
      -4.321990e+00       4.310017e+00      -1.348287e-02 
      -4.304456e+00       4.325396e+00       0.000000e+00 
      -4.324810e+00       4.336783e+00       1.348287e-02 
      -4.342344e+00       4.321404e+00       0.000000e+00 
      -3.866482e+00      -1.337793e-02       4.325438e+00 
      -3.848948e+00       2.000753e-03       4.338921e+00 
      -3.869302e+00       1.338753e-02       4.352403e+00 
      -3.886837e+00      -1.991159e-03       4.338921e+00 
      -4.108045e+00       2.150828e+00       2.159926e+00 
      -4.081254e+00       2.153651e+00       2.159926e+00 
      -4.083248e+00       2.172577e+00       2.178994e+00 
      -4.110039e+00       2.169754e+00       2.178994e+00 
       4.309007e+00       4.315348e+00      -9.533827e-03 
       4.335799e+00       4.312526e+00      -9.533827e-03 
       4.337793e+00       4.331452e+00       9.533827e-03 
       4.311001e+00       4.334274e+00       9.533827e-03 
       3.853500e+00      -8.046868e-03       4.329387e+00 
       3.880291e+00      -1.086958e-02       4.329387e+00 
       3.882285e+00       8.056462e-03       4.348454e+00 
       3.855494e+00       1.087917e-02       4.348454e+00 
       4.321990e+00       4.310017e+00      -1.348287e-02 
       4.342344e+00       4.321404e+00       0.000000e+00 
       4.324810e+00       4.336783e+00       1.348287e-02 
       4.304456e+00       4.325396e+00       0.000000e+00 
       3.866482e+00      -1.337793e-02       4.325438e+00 
       3.886837e+00      -1.991160e-03       4.338921e+00 
       3.869302e+00       1.338753e-02       4.352403e+00 
       3.848948e+00       2.000753e-03       4.338921e+00 
       4.081253e+00       2.153651e+00       2.159926e+00 
       4.108045e+00       2.150828e+00       2.159926e+00 
       4.110039e+00       2.169754e+00       2.178994e+00 
       4.083247e+00       2.172577e+00       2.178994e+00 
      -4.309007e+00      -4.315348e+00      -9.533838e-03 
      -4.335799e+00      -4.312526e+00      -9.533838e-03 
      -4.337793e+00      -4.331452e+00       9.533838e-03 
      -4.311001e+00      -4.334274e+00       9.533838e-03 
      -3.853500e+00       8.056455e-03       4.329387e+00 
      -3.880291e+00       1.087916e-02       4.329387e+00 
      -3.882285e+00      -8.046862e-03       4.348454e+00 
      -3.855494e+00      -1.086956e-02       4.348454e+00 
      -4.321990e+00      -4.310017e+00      -1.348288e-02 
      -4.342344e+00      -4.321404e+00       0.000000e+00 
      -4.324810e+00      -4.336783e+00       1.348288e-02 
      -4.304456e+00      -4.325396e+00       0.000000e+00 
      -3.866482e+00       1.338751e-02       4.325438e+00 
      -3.886837e+00       2.000748e-03       4.338921e+00 
      -3.869302e+00      -1.337792e-02       4.352403e+00 
      -3.848948e+00      -1.991155e-03       4.338921e+00 
      -4.081254e+00      -2.153646e+00       2.159926e+00 
      -4.108045e+00      -2.150823e+00       2.159926e+00 
      -4.110039e+00      -2.169749e+00       2.178994e+00 
      -4.083248e+00      -2.172572e+00       2.178994e+00 
      -4.315348e+00       4.309007e+00      -9.533831e-03 
      -4.312526e+00       4.335799e+00      -9.533831e-03 
      -4.331452e+00       4.337793e+00       9.533831e-03 
      -4.334274e+00       4.311001e+00       9.533831e-03 
       8.051615e-03       3.853505e+00       4.329387e+00 
       1.087429e-02       3.880296e+00       4.329387e+00 
      -8.051743e-03       3.882290e+00       4.348455e+00 
      -1.087442e-02       3.855499e+00       4.348455e+00 
      -4.310017e+00       4.321990e+00      -1.348287e-02 
      -4.321404e+00       4.342344e+00       0.000000e+00 
      -4.336783e+00       4.324810e+00       1.348287e-02 
      -4.325396e+00       4.304456e+00       0.000000e+00 
       1.338266e-02       3.866487e+00       4.325438e+00 
       1.995869e-03       3.886842e+00       4.338921e+00 
      -1.338279e-02       3.869307e+00       4.352404e+00 
      -1.995997e-03       3.848953e+00       4.338921e+00 
      -2.153648e+00       4.081256e+00       2.159927e+00 
      -2.150826e+00       4.108047e+00       2.159927e+00 
      -2.169752e+00       4.110041e+00       2.178994e+00 
      -2.172574e+00       4.083250e+00       2.178994e+00 
      -4.312526e+00      -4.335799e+00      -9.533834e-03 
      -4.315348e+00      -4.309007e+00      -9.533834e-03 
      -4.334274e+00      -4.311001e+00       9.533834e-03 
      -4.331452e+00      -4.337793e+00       9.533834e-03 
       1.087432e-02      -3.880286e+00       4.329386e+00 
       8.051580e-03      -3.853495e+00       4.329386e+00 
      -1.087444e-02      -3.855489e+00       4.348454e+00 
      -8.051709e-03      -3.882280e+00       4.348454e+00 
      -4.310017e+00      -4.321990e+00      -1.348288e-02 
      -4.325396e+00      -4.304456e+00       0.000000e+00 
      -4.336783e+00      -4.324810e+00       1.348288e-02 
      -4.321404e+00      -4.342344e+00       0.000000e+00 
       1.338266e-02      -3.866477e+00       4.325437e+00 
      -1.996040e-03      -3.848943e+00       4.338920e+00 
      -1.338278e-02      -3.869297e+00       4.352403e+00 
       1.995911e-03      -3.886832e+00       4.338920e+00 
      -2.150826e+00      -4.108042e+00       2.159926e+00 
      -2.153648e+00      -4.081251e+00       2.159926e+00 
      -2.172574e+00      -4.083245e+00       2.178994e+00 
      -2.169752e+00      -4.110036e+00       2.178994e+00 
       4.312526e+00       4.335799e+00      -9.533831e-03 
       4.315348e+00       4.309007e+00      -9.533831e-03 
       4.334274e+00       4.311001e+00       9.533831e-03 
       4.331452e+00       4.337793e+00       9.533831e-03 
      -1.087442e-02       3.880296e+00       4.329387e+00 
      -8.051743e-03       3.853505e+00       4.329387e+00 
       1.087429e-02       3.855499e+00       4.348455e+00 
       8.051615e-03       3.882290e+00       4.348455e+00 
       4.310017e+00       4.321990e+00      -1.348287e-02 
       4.325396e+00       4.304456e+00       0.000000e+00 
       4.336783e+00       4.324810e+00       1.348287e-02 
       4.321404e+00       4.342344e+00       0.000000e+00 
      -1.338279e-02       3.866487e+00       4.325438e+00 
       1.995869e-03       3.848953e+00       4.338921e+00 
       1.338266e-02       3.869307e+00       4.352404e+00 
      -1.995997e-03       3.886842e+00       4.338921e+00 
       2.150826e+00       4.108047e+00       2.159927e+00 
       2.153648e+00       4.081256e+00       2.159927e+00 
       2.172574e+00       4.083250e+00       2.178994e+00 
       2.169752e+00       4.110041e+00       2.178994e+00 
       4.335799e+00      -4.312526e+00      -9.533838e-03 
       4.309007e+00      -4.315348e+00      -9.533838e-03 
       4.311001e+00      -4.334274e+00       9.533838e-03 
       4.337793e+00      -4.331452e+00       9.533838e-03 
       3.880291e+00       1.087916e-02       4.329387e+00 
       3.853500e+00       8.056455e-03       4.329387e+00 
       3.855494e+00      -1.086956e-02       4.348454e+00 
       3.882285e+00      -8.046861e-03       4.348454e+00 
       4.321990e+00      -4.310017e+00      -1.348288e-02 
       4.304456e+00      -4.325396e+00       0.000000e+00 
       4.324810e+00      -4.336783e+00       1.348288e-02 
       4.342344e+00      -4.321404e+00       0.000000e+00 
       3.866482e+00       1.338751e-02       4.325438e+00 
       3.848948e+00      -1.991155e-03       4.338921e+00 
       3.869302e+00      -1.337792e-02       4.352403e+00 
       3.886837e+00       2.000749e-03       4.338921e+00 
       4.108045e+00      -2.150823e+00       2.159926e+00 
       4.081253e+00      -2.153646e+00       2.159926e+00 
       4.083247e+00      -2.172572e+00       2.178994e+00 
       4.110039e+00      -2.169749e+00       2.178994e+00 
       4.315348e+00      -4.309007e+00      -9.533834e-03 
       4.312526e+00      -4.335799e+00      -9.533834e-03 
       4.331452e+00      -4.337793e+00       9.533834e-03 
       4.334274e+00      -4.311001e+00       9.533834e-03 
      -8.051708e-03      -3.853495e+00       4.329386e+00 
      -1.087444e-02      -3.880286e+00       4.329386e+00 
       8.051580e-03      -3.882280e+00       4.348454e+00 
       1.087432e-02      -3.855489e+00       4.348454e+00 
       4.310017e+00      -4.321990e+00      -1.348288e-02 
       4.321404e+00      -4.342344e+00       0.000000e+00 
       4.336783e+00      -4.324810e+00       1.348288e-02 
       4.325396e+00      -4.304456e+00       0.000000e+00 
      -1.338278e-02      -3.866477e+00       4.325437e+00 
      -1.996040e-03      -3.886832e+00       4.338920e+00 
       1.338266e-02      -3.869297e+00       4.352403e+00 
       1.995911e-03      -3.848943e+00       4.338920e+00 
       2.153648e+00      -4.081251e+00       2.159926e+00 
       2.150826e+00      -4.108042e+00       2.159926e+00 
       2.169752e+00      -4.110036e+00       2.178994e+00 
       2.172574e+00      -4.083245e+00       2.178994e+00 
      -4.290298e+00      -4.323580e+00      -3.456479e-03 
      -4.323581e+00      -4.290298e+00      -3.456479e-03 
      -4.356502e+00      -4.323220e+00       3.456479e-03 
      -4.323219e+00      -4.356502e+00       3.456479e-03 
      -3.834881e+00      -3.868157e+00       4.334226e+00 
      -3.868163e+00      -3.834875e+00       4.334226e+00 
      -3.901085e+00      -3.867796e+00       4.341139e+00 
[...]
POINT_DATA     13260 
VECTORS Displacements float
       0.00000000e+00       0.00000000e+00       0.00000000e+00 
       0.00000000e+00       0.00000000e+00       0.00000000e+00 
       0.00000000e+00       0.00000000e+00       0.00000000e+00 
       0.00000000e+00       0.00000000e+00       0.00000000e+00 
       7.54834213e-06       4.79672671e-06      -2.79385603e-04 
       7.54834213e-06       4.79672671e-06      -2.79385603e-04 
       7.54834213e-06       4.79672671e-06      -2.79385603e-04 
       7.54834213e-06       4.79672671e-06      -2.79385603e-04 
       0.00000000e+00       0.00000000e+00       0.00000000e+00 
       0.00000000e+00       0.00000000e+00       0.00000000e+00 
       0.00000000e+00       0.00000000e+00       0.00000000e+00 
       0.00000000e+00       0.00000000e+00       0.00000000e+00 
       7.54834213e-06       4.79672671e-06      -2.79385603e-04 
       7.54834213e-06       4.79672671e-06      -2.79385603e-04 
       7.54834213e-06       4.79672671e-06      -2.79385603e-04 
       7.54834213e-06       4.79672671e-06      -2.79385603e-04 
       3.77417107e-06       2.39836335e-06      -1.39692802e-04 
       3.77417107e-06       2.39836335e-06      -1.39692802e-04 
       3.77417107e-06       2.39836335e-06      -1.39692802e-04 
       3.77417107e-06       2.39836335e-06      -1.39692802e-04 
       0.00000000e+00       0.00000000e+00       0.00000000e+00 
       0.00000000e+00       0.00000000e+00       0.00000000e+00 
       0.00000000e+00       0.00000000e+00       0.00000000e+00 
       0.00000000e+00       0.00000000e+00       0.00000000e+00 
      -7.67660992e-06       4.79674907e-06      -2.79399088e-04 
      -7.67660992e-06       4.79674907e-06      -2.79399088e-04 
      -7.67660992e-06       4.79674907e-06      -2.79399088e-04 
      -7.67660992e-06       4.79674907e-06      -2.79399088e-04 
       0.00000000e+00       0.00000000e+00       0.00000000e+00 
       0.00000000e+00       0.00000000e+00       0.00000000e+00 
       0.00000000e+00       0.00000000e+00       0.00000000e+00 
       0.00000000e+00       0.00000000e+00       0.00000000e+00 
      -7.67660992e-06       4.79674907e-06      -2.79399088e-04 
      -7.67660992e-06       4.79674907e-06      -2.79399088e-04 
      -7.67660992e-06       4.79674907e-06      -2.79399088e-04 
      -7.67660992e-06       4.79674907e-06      -2.79399088e-04 
      -3.83830496e-06       2.39837454e-06      -1.39699544e-04 
      -3.83830496e-06       2.39837454e-06      -1.39699544e-04 
      -3.83830496e-06       2.39837454e-06      -1.39699544e-04 
      -3.83830496e-06       2.39837454e-06      -1.39699544e-04 
       0.00000000e+00       0.00000000e+00       0.00000000e+00 
       0.00000000e+00       0.00000000e+00       0.00000000e+00 
       0.00000000e+00       0.00000000e+00       0.00000000e+00 
       0.00000000e+00       0.00000000e+00       0.00000000e+00 
       7.54834213e-06       4.79672671e-06      -2.79385603e-04 
       7.54834213e-06       4.79672671e-06      -2.79385603e-04 
       7.54834213e-06       4.79672671e-06      -2.79385603e-04 
       7.54834213e-06       4.79672671e-06      -2.79385603e-04 
       0.00000000e+00       0.00000000e+00       0.00000000e+00 
       0.00000000e+00       0.00000000e+00       0.00000000e+00 
       0.00000000e+00       0.00000000e+00       0.00000000e+00 
       0.00000000e+00       0.00000000e+00       0.00000000e+00 
       7.54834213e-06       4.79672671e-06      -2.79385603e-04 
       7.54834213e-06       4.79672671e-06      -2.79385603e-04 
       7.54834213e-06       4.79672671e-06      -2.79385603e-04 
       7.54834213e-06       4.79672671e-06      -2.79385603e-04 
       3.77417107e-06       2.39836335e-06      -1.39692802e-04 
       3.77417107e-06       2.39836335e-06      -1.39692802e-04 
       3.77417107e-06       2.39836335e-06      -1.39692802e-04 
       3.77417107e-06       2.39836335e-06      -1.39692802e-04 
       0.00000000e+00       0.00000000e+00       0.00000000e+00 
       0.00000000e+00       0.00000000e+00       0.00000000e+00 
       0.00000000e+00       0.00000000e+00       0.00000000e+00 
       0.00000000e+00       0.00000000e+00       0.00000000e+00 
      -6.41403767e-08      -2.67836456e-06      -2.78875400e-04 
      -6.41403767e-08      -2.67836456e-06      -2.78875400e-04 
      -6.41403767e-08      -2.67836456e-06      -2.78875400e-04 
      -6.41403767e-08      -2.67836456e-06      -2.78875400e-04 
       0.00000000e+00       0.00000000e+00       0.00000000e+00 
       0.00000000e+00       0.00000000e+00       0.00000000e+00 
       0.00000000e+00       0.00000000e+00       0.00000000e+00 
       0.00000000e+00       0.00000000e+00       0.00000000e+00 
      -6.41403767e-08      -2.67836456e-06      -2.78875400e-04 
      -6.41403767e-08      -2.67836456e-06      -2.78875400e-04 
      -6.41403767e-08      -2.67836456e-06      -2.78875400e-04 
      -6.41403767e-08      -2.67836456e-06      -2.78875400e-04 
      -3.20701883e-08      -1.33918228e-06      -1.39437700e-04 
      -3.20701883e-08      -1.33918228e-06      -1.39437700e-04 
      -3.20701883e-08      -1.33918228e-06      -1.39437700e-04 
      -3.20701883e-08      -1.33918228e-06      -1.39437700e-04 
       0.00000000e+00       0.00000000e+00       0.00000000e+00 
       0.00000000e+00       0.00000000e+00       0.00000000e+00 
       0.00000000e+00       0.00000000e+00       0.00000000e+00 
       0.00000000e+00       0.00000000e+00       0.00000000e+00 
      -6.41163978e-08       1.25465972e-05      -2.79909456e-04 
      -6.41163978e-08       1.25465972e-05      -2.79909456e-04 
      -6.41163978e-08       1.25465972e-05      -2.79909456e-04 
      -6.41163978e-08       1.25465972e-05      -2.79909456e-04 
       0.00000000e+00       0.00000000e+00       0.00000000e+00 
       0.00000000e+00       0.00000000e+00       0.00000000e+00 
       0.00000000e+00       0.00000000e+00       0.00000000e+00 
       0.00000000e+00       0.00000000e+00       0.00000000e+00 
      -6.41163978e-08       1.25465972e-05      -2.79909456e-04 
      -6.41163978e-08       1.25465972e-05      -2.79909456e-04 
      -6.41163978e-08       1.25465972e-05      -2.79909456e-04 
      -6.41163978e-08       1.25465972e-05      -2.79909456e-04 
      -3.20581989e-08       6.27329859e-06      -1.39954728e-04 
      -3.20581989e-08       6.27329859e-06      -1.39954728e-04 
      -3.20581989e-08       6.27329859e-06      -1.39954728e-04 
      -3.20581989e-08       6.27329859e-06      -1.39954728e-04 
       0.00000000e+00       0.00000000e+00       0.00000000e+00 
       0.00000000e+00       0.00000000e+00       0.00000000e+00 
       0.00000000e+00       0.00000000e+00       0.00000000e+00 
       0.00000000e+00       0.00000000e+00       0.00000000e+00 
      -6.41403767e-08      -2.67836456e-06      -2.78875400e-04 
      -6.41403767e-08      -2.67836456e-06      -2.78875400e-04 
      -6.41403767e-08      -2.67836456e-06      -2.78875400e-04 
      -6.41403767e-08      -2.67836456e-06      -2.78875400e-04 
       0.00000000e+00       0.00000000e+00       0.00000000e+00 
       0.00000000e+00       0.00000000e+00       0.00000000e+00 
       0.00000000e+00       0.00000000e+00       0.00000000e+00 
       0.00000000e+00       0.00000000e+00       0.00000000e+00 
      -6.41403767e-08      -2.67836456e-06      -2.78875400e-04 
      -6.41403767e-08      -2.67836456e-06      -2.78875400e-04 
      -6.41403767e-08      -2.67836456e-06      -2.78875400e-04 
      -6.41403767e-08      -2.67836456e-06      -2.78875400e-04 
      -3.20701883e-08      -1.33918228e-06      -1.39437700e-04 
      -3.20701883e-08      -1.33918228e-06      -1.39437700e-04 
      -3.20701883e-08      -1.33918228e-06      -1.39437700e-04 
      -3.20701883e-08      -1.33918228e-06      -1.39437700e-04 
       0.00000000e+00       0.00000000e+00       0.00000000e+00 
       0.00000000e+00       0.00000000e+00       0.00000000e+00 
       0.00000000e+00       0.00000000e+00       0.00000000e+00 
       0.00000000e+00       0.00000000e+00       0.00000000e+00 
      -7.67660992e-06       4.79674907e-06      -2.79399088e-04 
      -7.67660992e-06       4.79674907e-06      -2.79399088e-04 
      -7.67660992e-06       4.79674907e-06      -2.79399088e-04 
      -7.67660992e-06       4.79674907e-06      -2.79399088e-04 
       0.00000000e+00       0.00000000e+00       0.00000000e+00 
       0.00000000e+00       0.00000000e+00       0.00000000e+00 
       0.00000000e+00       0.00000000e+00       0.00000000e+00 
       0.00000000e+00       0.00000000e+00       0.00000000e+00 
      -7.67660992e-06       4.79674907e-06      -2.79399088e-04 
      -7.67660992e-06       4.79674907e-06      -2.79399088e-04 
      -7.67660992e-06       4.79674907e-06      -2.79399088e-04 
      -7.67660992e-06       4.79674907e-06      -2.79399088e-04 
      -3.83830496e-06       2.39837454e-06      -1.39699544e-04 
      -3.83830496e-06       2.39837454e-06      -1.39699544e-04 
      -3.83830496e-06       2.39837454e-06      -1.39699544e-04 
      -3.83830496e-06       2.39837454e-06      -1.39699544e-04 
       0.00000000e+00       0.00000000e+00       0.00000000e+00 
       0.00000000e+00       0.00000000e+00       0.00000000e+00 
       0.00000000e+00       0.00000000e+00       0.00000000e+00 
       0.00000000e+00       0.00000000e+00       0.00000000e+00 
      -6.41163978e-08       1.25465972e-05      -2.79909456e-04 
      -6.41163978e-08       1.25465972e-05      -2.79909456e-04 
      -6.41163978e-08       1.25465972e-05      -2.79909456e-04 
      -6.41163978e-08       1.25465972e-05      -2.79909456e-04 
       0.00000000e+00       0.00000000e+00       0.00000000e+00 
       0.00000000e+00       0.00000000e+00       0.00000000e+00 
       0.00000000e+00       0.00000000e+00       0.00000000e+00 
       0.00000000e+00       0.00000000e+00       0.00000000e+00 
      -6.41163978e-08       1.25465972e-05      -2.79909456e-04 
      -6.41163978e-08       1.25465972e-05      -2.79909456e-04 
      -6.41163978e-08       1.25465972e-05      -2.79909456e-04 
      -6.41163978e-08       1.25465972e-05      -2.79909456e-04 
      -3.20581989e-08       6.27329859e-06      -1.39954728e-04 
      -3.20581989e-08       6.27329859e-06      -1.39954728e-04 
      -3.20581989e-08       6.27329859e-06      -1.39954728e-04 
      -3.20581989e-08       6.27329859e-06      -1.39954728e-04 
       0.00000000e+00       0.00000000e+00       0.00000000e+00 
       0.00000000e+00       0.00000000e+00       0.00000000e+00 
       0.00000000e+00       0.00000000e+00       0.00000000e+00 
       0.00000000e+00       0.00000000e+00       0.00000000e+00 
      -8.27748571e-05      -7.66534852e-05      -1.51734662e-03 
      -8.27748571e-05      -7.66534852e-05      -1.51734662e-03 
      -8.27748571e-05      -7.66534852e-05      -1.51734662e-03 
      -8.27748571e-05      -7.66534852e-05      -1.51734662e-03 
       0.00000000e+00       0.00000000e+00       0.00000000e+00 
       0.00000000e+00       0.00000000e+00       0.00000000e+00 
       0.00000000e+00       0.00000000e+00       0.00000000e+00 
       0.00000000e+00       0.00000000e+00       0.00000000e+00 
      -8.27748571e-05      -7.66534852e-05      -1.51734662e-03 
      -8.27748571e-05      -7.66534852e-05      -1.51734662e-03 
      -8.27748571e-05      -7.66534852e-05      -1.51734662e-03 
      -8.27748571e-05      -7.66534852e-05      -1.51734662e-03 
      -4.13874286e-05      -3.83267426e-05      -7.58673312e-04 
      -4.13874286e-05      -3.83267426e-05      -7.58673312e-04 
      -4.13874286e-05      -3.83267426e-05      -7.58673312e-04 
      -4.13874286e-05      -3.83267426e-05      -7.58673312e-04 
       0.00000000e+00       0.00000000e+00       0.00000000e+00 
       0.00000000e+00       0.00000000e+00       0.00000000e+00 
       0.00000000e+00       0.00000000e+00       0.00000000e+00 
       0.00000000e+00       0.00000000e+00       0.00000000e+00 
       8.26065693e-05      -7.66609814e-05      -1.51750760e-03 
       8.26065693e-05      -7.66609814e-05      -1.51750760e-03 
       8.26065693e-05      -7.66609814e-05      -1.51750760e-03 
       8.26065693e-05      -7.66609814e-05      -1.51750760e-03 
       0.00000000e+00       0.00000000e+00       0.00000000e+00 
       0.00000000e+00       0.00000000e+00       0.00000000e+00 
       0.00000000e+00       0.00000000e+00       0.00000000e+00 
       0.00000000e+00       0.00000000e+00       0.00000000e+00 
       8.26065693e-05      -7.66609814e-05      -1.51750760e-03 
       8.26065693e-05      -7.66609814e-05      -1.51750760e-03 
       8.26065693e-05      -7.66609814e-05      -1.51750760e-03 
       8.26065693e-05      -7.66609814e-05      -1.51750760e-03 
       4.13032847e-05      -3.83304907e-05      -7.58753798e-04 
       4.13032847e-05      -3.83304907e-05      -7.58753798e-04 
       4.13032847e-05      -3.83304907e-05      -7.58753798e-04 
       4.13032847e-05      -3.83304907e-05      -7.58753798e-04 
       0.00000000e+00       0.00000000e+00       0.00000000e+00 
       0.00000000e+00       0.00000000e+00       0.00000000e+00 
       0.00000000e+00       0.00000000e+00       0.00000000e+00 
       0.00000000e+00       0.00000000e+00       0.00000000e+00 
       8.30952340e-05       8.90467764e-05      -1.53832211e-03 
       8.30952340e-05       8.90467764e-05      -1.53832211e-03 
       8.30952340e-05       8.90467764e-05      -1.53832211e-03 
       8.30952340e-05       8.90467764e-05      -1.53832211e-03 
       0.00000000e+00       0.00000000e+00       0.00000000e+00 
       0.00000000e+00       0.00000000e+00       0.00000000e+00 
       0.00000000e+00       0.00000000e+00       0.00000000e+00 
       0.00000000e+00       0.00000000e+00       0.00000000e+00 
       8.30952340e-05       8.90467764e-05      -1.53832211e-03 
       8.30952340e-05       8.90467764e-05      -1.53832211e-03 
       8.30952340e-05       8.90467764e-05      -1.53832211e-03 
       8.30952340e-05       8.90467764e-05      -1.53832211e-03 
       4.15476170e-05       4.45233882e-05      -7.69161055e-04 
       4.15476170e-05       4.45233882e-05      -7.69161055e-04 
       4.15476170e-05       4.45233882e-05      -7.69161055e-04 
       4.15476170e-05       4.45233882e-05      -7.69161055e-04 
       0.00000000e+00       0.00000000e+00       0.00000000e+00 
       0.00000000e+00       0.00000000e+00       0.00000000e+00 
       0.00000000e+00       0.00000000e+00       0.00000000e+00 
       0.00000000e+00       0.00000000e+00       0.00000000e+00 
      -8.32635868e-05       8.90392234e-05      -1.53816114e-03 
      -8.32635868e-05       8.90392234e-05      -1.53816114e-03 
      -8.32635868e-05       8.90392234e-05      -1.53816114e-03 
      -8.32635868e-05       8.90392234e-05      -1.53816114e-03 
       0.00000000e+00       0.00000000e+00       0.00000000e+00 
       0.00000000e+00       0.00000000e+00       0.00000000e+00 
       0.00000000e+00       0.00000000e+00       0.00000000e+00 
       0.00000000e+00       0.00000000e+00       0.00000000e+00 
      -8.32635868e-05       8.90392234e-05      -1.53816114e-03 
      -8.32635868e-05       8.90392234e-05      -1.53816114e-03 
      -8.32635868e-05       8.90392234e-05      -1.53816114e-03 
      -8.32635868e-05       8.90392234e-05      -1.53816114e-03 
      -4.16317934e-05       4.45196117e-05      -7.69080569e-04 
      -4.16317934e-05       4.45196117e-05      -7.69080569e-04 
      -4.16317934e-05       4.45196117e-05      -7.69080569e-04 
      -4.16317934e-05       4.45196117e-05      -7.69080569e-04 
       7.54834213e-06       4.79672671e-06      -2.79385603e-04 
       7.54834213e-06       4.79672671e-06      -2.79385603e-04 
       7.54834213e-06       4.79672671e-06      -2.79385603e-04 
       7.54834213e-06       4.79672671e-06      -2.79385603e-04 
      -8.32635868e-05       8.90392234e-05      -1.53816114e-03 
      -8.32635868e-05       8.90392234e-05      -1.53816114e-03 
      -8.32635868e-05       8.90392234e-05      -1.53816114e-03 
      -8.32635868e-05       8.90392234e-05      -1.53816114e-03 
       7.54834213e-06       4.79672671e-06      -2.79385603e-04 
       7.54834213e-06       4.79672671e-06      -2.79385603e-04 
       7.54834213e-06       4.79672671e-06      -2.79385603e-04 
       7.54834213e-06       4.79672671e-06      -2.79385603e-04 
      -8.32635868e-05       8.90392234e-05      -1.53816114e-03 
      -8.32635868e-05       8.90392234e-05      -1.53816114e-03 
      -8.32635868e-05       8.90392234e-05      -1.53816114e-03 
      -8.32635868e-05       8.90392234e-05      -1.53816114e-03 
      -3.78576223e-05       4.69179750e-05      -9.08773371e-04 
      -3.78576223e-05       4.69179750e-05      -9.08773371e-04 
      -3.78576223e-05       4.69179750e-05      -9.08773371e-04 
      -3.78576223e-05       4.69179750e-05      -9.08773371e-04 
       7.54834213e-06       4.79672671e-06      -2.79385603e-04 
       7.54834213e-06       4.79672671e-06      -2.79385603e-04 
       7.54834213e-06       4.79672671e-06      -2.79385603e-04 
       7.54834213e-06       4.79672671e-06      -2.79385603e-04 
      -8.27748571e-05      -7.66534852e-05      -1.51734662e-03 
      -8.27748571e-05      -7.66534852e-05      -1.51734662e-03 
      -8.27748571e-05      -7.66534852e-05      -1.51734662e-03 
      -8.27748571e-05      -7.66534852e-05      -1.51734662e-03 
       7.54834213e-06       4.79672671e-06      -2.79385603e-04 
       7.54834213e-06       4.79672671e-06      -2.79385603e-04 
       7.54834213e-06       4.79672671e-06      -2.79385603e-04 
       7.54834213e-06       4.79672671e-06      -2.79385603e-04 
      -8.27748571e-05      -7.66534852e-05      -1.51734662e-03 
      -8.27748571e-05      -7.66534852e-05      -1.51734662e-03 
      -8.27748571e-05      -7.66534852e-05      -1.51734662e-03 
      -8.27748571e-05      -7.66534852e-05      -1.51734662e-03 
      -3.76132575e-05      -3.59283792e-05      -8.98366114e-04 
      -3.76132575e-05      -3.59283792e-05      -8.98366114e-04 
      -3.76132575e-05      -3.59283792e-05      -8.98366114e-04 
      -3.76132575e-05      -3.59283792e-05      -8.98366114e-04 
      -7.67660992e-06       4.79674907e-06      -2.79399088e-04 
      -7.67660992e-06       4.79674907e-06      -2.79399088e-04 
      -7.67660992e-06       4.79674907e-06      -2.79399088e-04 
      -7.67660992e-06       4.79674907e-06      -2.79399088e-04 
       8.30952340e-05       8.90467764e-05      -1.53832211e-03 
       8.30952340e-05       8.90467764e-05      -1.53832211e-03 
       8.30952340e-05       8.90467764e-05      -1.53832211e-03 
       8.30952340e-05       8.90467764e-05      -1.53832211e-03 
      -7.67660992e-06       4.79674907e-06      -2.79399088e-04 
      -7.67660992e-06       4.79674907e-06      -2.79399088e-04 
      -7.67660992e-06       4.79674907e-06      -2.79399088e-04 
      -7.67660992e-06       4.79674907e-06      -2.79399088e-04 
       8.30952340e-05       8.90467764e-05      -1.53832211e-03 
       8.30952340e-05       8.90467764e-05      -1.53832211e-03 
       8.30952340e-05       8.90467764e-05      -1.53832211e-03 
       8.30952340e-05       8.90467764e-05      -1.53832211e-03 
       3.77093120e-05       4.69217627e-05      -9.08860599e-04 
       3.77093120e-05       4.69217627e-05      -9.08860599e-04 
       3.77093120e-05       4.69217627e-05      -9.08860599e-04 
       3.77093120e-05       4.69217627e-05      -9.08860599e-04 
      -7.67660992e-06       4.79674907e-06      -2.79399088e-04 
      -7.67660992e-06       4.79674907e-06      -2.79399088e-04 
      -7.67660992e-06       4.79674907e-06      -2.79399088e-04 
      -7.67660992e-06       4.79674907e-06      -2.79399088e-04 
      -6.41163978e-08       1.25465972e-05      -2.79909456e-04 
      -6.41163978e-08       1.25465972e-05      -2.79909456e-04 