# vtk DataFile Version 2.0
./output/Static_Tower/Static_Tower_0008.vtk
ASCII
DATASET UNSTRUCTURED_GRID

POINTS 13260 float
      -4.335797e+00       4.312524e+00      -9.533730e-03 
      -4.309006e+00       4.315350e+00      -9.533730e-03 
      -4.311003e+00       4.334276e+00       9.533730e-03 
      -4.337794e+00       4.331450e+00       9.533730e-03 
      -3.879615e+00      -1.087639e-02       4.329551e+00 
      -3.852825e+00      -8.049554e-03       4.329551e+00 
      -3.854821e+00       1.087637e-02       4.348618e+00 
      -3.881612e+00       8.049536e-03       4.348618e+00 
      -4.321988e+00       4.310017e+00      -1.348273e-02 
      -4.304456e+00       4.325399e+00       0.000000e+00 
      -4.324812e+00       4.336783e+00       1.348273e-02 
      -4.342344e+00       4.321401e+00       0.000000e+00 
      -3.865806e+00      -1.338266e-02       4.325602e+00 
      -3.848274e+00       1.998866e-03       4.339085e+00 
      -3.868631e+00       1.338264e-02       4.352567e+00 
      -3.886163e+00      -1.998883e-03       4.339085e+00 
      -4.107706e+00       2.150824e+00       2.160009e+00 
      -4.080915e+00       2.153650e+00       2.160009e+00 
      -4.082912e+00       2.172576e+00       2.179076e+00 
      -4.109703e+00       2.169750e+00       2.179076e+00 
       4.309009e+00       4.315346e+00      -9.533417e-03 
       4.335800e+00       4.312527e+00      -9.533417e-03 
       4.337791e+00       4.331454e+00       9.533417e-03 
       4.311000e+00       4.334273e+00       9.533417e-03 
       3.854188e+00      -8.054346e-03       4.329694e+00 
       3.880979e+00      -1.087284e-02       4.329694e+00 
       3.882971e+00       8.054327e-03       4.348761e+00 
       3.856179e+00       1.087282e-02       4.348761e+00 
       4.321992e+00       4.310016e+00      -1.348229e-02 
       4.342345e+00       4.321407e+00       0.000000e+00 
       4.324808e+00       4.336784e+00       1.348229e-02 
       4.304455e+00       4.325393e+00       0.000000e+00 
       3.867171e+00      -1.338354e-02       4.325745e+00 
       3.887524e+00      -1.992987e-03       4.339228e+00 
       3.869987e+00       1.338352e-02       4.352710e+00 
       3.849634e+00       1.992969e-03       4.339228e+00 
       4.081598e+00       2.153646e+00       2.160080e+00 
       4.108390e+00       2.150827e+00       2.160080e+00 
       4.110381e+00       2.169754e+00       2.179147e+00 
       4.083589e+00       2.172573e+00       2.179147e+00 
      -4.309006e+00      -4.315350e+00      -9.533730e-03 
      -4.335797e+00      -4.312524e+00      -9.533730e-03 
      -4.337794e+00      -4.331450e+00       9.533730e-03 
      -4.311003e+00      -4.334276e+00       9.533730e-03 
      -3.852825e+00       8.049536e-03       4.329551e+00 
      -3.879615e+00       1.087637e-02       4.329551e+00 
      -3.881612e+00      -8.049554e-03       4.348618e+00 
      -3.854821e+00      -1.087639e-02       4.348618e+00 
      -4.321988e+00      -4.310017e+00      -1.348273e-02 
      -4.342344e+00      -4.321401e+00       0.000000e+00 
      -4.324812e+00      -4.336783e+00       1.348273e-02 
      -4.304456e+00      -4.325399e+00       0.000000e+00 
      -3.865806e+00       1.338264e-02       4.325602e+00 
      -3.886163e+00       1.998866e-03       4.339085e+00 
      -3.868631e+00      -1.338266e-02       4.352567e+00 
      -3.848274e+00      -1.998883e-03       4.339085e+00 
      -4.080915e+00      -2.153650e+00       2.160009e+00 
      -4.107706e+00      -2.150824e+00       2.160009e+00 
      -4.109703e+00      -2.169750e+00       2.179076e+00 
      -4.082912e+00      -2.172576e+00       2.179076e+00 
      -4.315349e+00       4.309007e+00      -9.534294e-03 
      -4.312526e+00       4.335799e+00      -9.534294e-03 
      -4.331451e+00       4.337793e+00       9.534294e-03 
      -4.334274e+00       4.311001e+00       9.534294e-03 
       8.713495e-03       3.853506e+00       4.329622e+00 
       1.153573e-02       3.880298e+00       4.329622e+00 
      -7.389410e-03       3.882291e+00       4.348690e+00 
      -1.021165e-02       3.855500e+00       4.348690e+00 
      -4.310018e+00       4.321990e+00      -1.348353e-02 
      -4.321404e+00       4.342344e+00       0.000000e+00 
      -4.336782e+00       4.324810e+00       1.348353e-02 
      -4.325396e+00       4.304456e+00       0.000000e+00 
       1.404414e-02       3.866489e+00       4.325672e+00 
       2.657667e-03       3.886843e+00       4.339156e+00 
      -1.272005e-02       3.869308e+00       4.352640e+00 
      -1.333582e-03       3.848954e+00       4.339156e+00 
      -2.153318e+00       4.081257e+00       2.160044e+00 
      -2.150495e+00       4.108048e+00       2.160044e+00 
      -2.169420e+00       4.110042e+00       2.179112e+00 
      -2.172243e+00       4.083250e+00       2.179112e+00 
      -4.312526e+00      -4.335799e+00      -9.534294e-03 
      -4.315349e+00      -4.309007e+00      -9.534294e-03 
      -4.334274e+00      -4.311001e+00       9.534294e-03 
      -4.331451e+00      -4.337793e+00       9.534294e-03 
       1.153573e-02      -3.880298e+00       4.329622e+00 
       8.713495e-03      -3.853506e+00       4.329622e+00 
      -1.021165e-02      -3.855500e+00       4.348690e+00 
      -7.389410e-03      -3.882291e+00       4.348690e+00 
      -4.310018e+00      -4.321990e+00      -1.348353e-02 
      -4.325396e+00      -4.304456e+00       0.000000e+00 
      -4.336782e+00      -4.324810e+00       1.348353e-02 
      -4.321404e+00      -4.342344e+00       0.000000e+00 
       1.404414e-02      -3.866489e+00       4.325672e+00 
      -1.333582e-03      -3.848954e+00       4.339156e+00 
      -1.272006e-02      -3.869308e+00       4.352640e+00 
       2.657666e-03      -3.886843e+00       4.339156e+00 
      -2.150495e+00      -4.108048e+00       2.160044e+00 
      -2.153318e+00      -4.081257e+00       2.160044e+00 
      -2.172243e+00      -4.083250e+00       2.179112e+00 
      -2.169420e+00      -4.110042e+00       2.179112e+00 
       4.312524e+00       4.335798e+00      -9.532853e-03 
       4.315348e+00       4.309007e+00      -9.532853e-03 
       4.334276e+00       4.311002e+00       9.532853e-03 
       4.331452e+00       4.337793e+00       9.532853e-03 
      -1.021348e-02       3.880297e+00       4.329623e+00 
      -7.390387e-03       3.853506e+00       4.329623e+00 
       1.153757e-02       3.855500e+00       4.348689e+00 
       8.714471e-03       3.882292e+00       4.348689e+00 
       4.310016e+00       4.321990e+00      -1.348149e-02 
       4.325396e+00       4.304456e+00       0.000000e+00 
       4.336784e+00       4.324810e+00       1.348149e-02 
       4.321404e+00       4.342344e+00       0.000000e+00 
      -1.272204e-02       3.866488e+00       4.325675e+00 
       2.658271e-03       3.848954e+00       4.339156e+00 
       1.404613e-02       3.869309e+00       4.352638e+00 
      -1.334186e-03       3.886843e+00       4.339156e+00 
       2.151155e+00       4.108048e+00       2.160045e+00 
       2.153979e+00       4.081256e+00       2.160045e+00 
       2.172907e+00       4.083251e+00       2.179111e+00 
       2.170083e+00       4.110042e+00       2.179111e+00 
       4.335800e+00      -4.312527e+00      -9.533417e-03 
       4.309009e+00      -4.315346e+00      -9.533417e-03 
       4.311000e+00      -4.334273e+00       9.533417e-03 
       4.337791e+00      -4.331454e+00       9.533417e-03 
       3.880979e+00       1.087282e-02       4.329694e+00 
       3.854188e+00       8.054327e-03       4.329694e+00 
       3.856179e+00      -1.087284e-02       4.348761e+00 
       3.882971e+00      -8.054346e-03       4.348761e+00 
       4.321992e+00      -4.310016e+00      -1.348229e-02 
       4.304455e+00      -4.325393e+00       0.000000e+00 
       4.324808e+00      -4.336784e+00       1.348229e-02 
       4.342345e+00      -4.321407e+00       0.000000e+00 
       3.867171e+00       1.338352e-02       4.325745e+00 
       3.849634e+00      -1.992987e-03       4.339228e+00 
       3.869987e+00      -1.338354e-02       4.352710e+00 
       3.887524e+00       1.992969e-03       4.339228e+00 
       4.108390e+00      -2.150827e+00       2.160080e+00 
       4.081598e+00      -2.153646e+00       2.160080e+00 
       4.083589e+00      -2.172573e+00       2.179147e+00 
       4.110381e+00      -2.169754e+00       2.179147e+00 
       4.315348e+00      -4.309007e+00      -9.532853e-03 
       4.312524e+00      -4.335798e+00      -9.532853e-03 
       4.331452e+00      -4.337793e+00       9.532853e-03 
       4.334276e+00      -4.311002e+00       9.532853e-03 
      -7.390387e-03      -3.853506e+00       4.329623e+00 
      -1.021348e-02      -3.880297e+00       4.329623e+00 
       8.714471e-03      -3.882292e+00       4.348689e+00 
       1.153756e-02      -3.855500e+00       4.348689e+00 
       4.310016e+00      -4.321990e+00      -1.348149e-02 
       4.321404e+00      -4.342344e+00       0.000000e+00 
       4.336784e+00      -4.324810e+00       1.348149e-02 
       4.325396e+00      -4.304456e+00       0.000000e+00 
      -1.272204e-02      -3.866488e+00       4.325675e+00 
      -1.334187e-03      -3.886843e+00       4.339156e+00 
       1.404613e-02      -3.869309e+00       4.352638e+00 
       2.658271e-03      -3.848954e+00       4.339156e+00 
       2.153979e+00      -4.081256e+00       2.160045e+00 
       2.151155e+00      -4.108048e+00       2.160045e+00 
       2.170083e+00      -4.110042e+00       2.179111e+00 
       2.172907e+00      -4.083251e+00       2.179111e+00 
      -4.290298e+00      -4.323610e+00      -3.458203e-03 
      -4.323551e+00      -4.290298e+00      -3.458203e-03 
      -4.356502e+00      -4.323190e+00       3.458203e-03 
      -4.323249e+00      -4.356502e+00       3.458203e-03 
      -3.833953e+00      -3.868084e+00       4.336928e+00 
      -3.867205e+00      -3.834771e+00       4.336928e+00 
      -3.900156e+00      -3.867663e+00       4.343844e+00 
[...]
POINT_DATA     13260 
VECTORS Displacements float
       0.00000000e+00       0.00000000e+00       0.00000000e+00 
       0.00000000e+00       0.00000000e+00       0.00000000e+00 
       0.00000000e+00       0.00000000e+00       0.00000000e+00 
       0.00000000e+00       0.00000000e+00       0.00000000e+00 
       6.81518183e-04      -8.71269416e-09      -1.15287969e-04 
       6.81518183e-04      -8.71269416e-09      -1.15287969e-04 
       6.81518183e-04      -8.71269416e-09      -1.15287969e-04 
       6.81518183e-04      -8.71269416e-09      -1.15287969e-04 
       0.00000000e+00       0.00000000e+00       0.00000000e+00 
       0.00000000e+00       0.00000000e+00       0.00000000e+00 
       0.00000000e+00       0.00000000e+00       0.00000000e+00 
       0.00000000e+00       0.00000000e+00       0.00000000e+00 
       6.81518183e-04      -8.71269416e-09      -1.15287969e-04 
       6.81518183e-04      -8.71269416e-09      -1.15287969e-04 
       6.81518183e-04      -8.71269416e-09      -1.15287969e-04 
       6.81518183e-04      -8.71269416e-09      -1.15287969e-04 
       3.40759091e-04      -4.35634708e-09      -5.76439844e-05 
       3.40759091e-04      -4.35634708e-09      -5.76439844e-05 
       3.40759091e-04      -4.35634708e-09      -5.76439844e-05 
       3.40759091e-04      -4.35634708e-09      -5.76439844e-05 
       0.00000000e+00       0.00000000e+00       0.00000000e+00 
       0.00000000e+00       0.00000000e+00       0.00000000e+00 
       0.00000000e+00       0.00000000e+00       0.00000000e+00 
       0.00000000e+00       0.00000000e+00       0.00000000e+00 
       6.79137124e-04      -9.15726253e-09       2.75201816e-05 
       6.79137124e-04      -9.15726253e-09       2.75201816e-05 
       6.79137124e-04      -9.15726253e-09       2.75201816e-05 
       6.79137124e-04      -9.15726253e-09       2.75201816e-05 
       0.00000000e+00       0.00000000e+00       0.00000000e+00 
       0.00000000e+00       0.00000000e+00       0.00000000e+00 
       0.00000000e+00       0.00000000e+00       0.00000000e+00 
       0.00000000e+00       0.00000000e+00       0.00000000e+00 
       6.79137124e-04      -9.15726253e-09       2.75201816e-05 
       6.79137124e-04      -9.15726253e-09       2.75201816e-05 
       6.79137124e-04      -9.15726253e-09       2.75201816e-05 
       6.79137124e-04      -9.15726253e-09       2.75201816e-05 
       3.39568562e-04      -4.57863127e-09       1.37600908e-05 
       3.39568562e-04      -4.57863127e-09       1.37600908e-05 
       3.39568562e-04      -4.57863127e-09       1.37600908e-05 
       3.39568562e-04      -4.57863127e-09       1.37600908e-05 
       0.00000000e+00       0.00000000e+00       0.00000000e+00 
       0.00000000e+00       0.00000000e+00       0.00000000e+00 
       0.00000000e+00       0.00000000e+00       0.00000000e+00 
       0.00000000e+00       0.00000000e+00       0.00000000e+00 
       6.81518183e-04      -8.71269416e-09      -1.15287969e-04 
       6.81518183e-04      -8.71269416e-09      -1.15287969e-04 
       6.81518183e-04      -8.71269416e-09      -1.15287969e-04 
       6.81518183e-04      -8.71269416e-09      -1.15287969e-04 
       0.00000000e+00       0.00000000e+00       0.00000000e+00 
       0.00000000e+00       0.00000000e+00       0.00000000e+00 
       0.00000000e+00       0.00000000e+00       0.00000000e+00 
       0.00000000e+00       0.00000000e+00       0.00000000e+00 
       6.81518183e-04      -8.71269416e-09      -1.15287969e-04 
       6.81518183e-04      -8.71269416e-09      -1.15287969e-04 
       6.81518183e-04      -8.71269416e-09      -1.15287969e-04 
       6.81518183e-04      -8.71269416e-09      -1.15287969e-04 
       3.40759091e-04      -4.35634708e-09      -5.76439844e-05 
       3.40759091e-04      -4.35634708e-09      -5.76439844e-05 
       3.40759091e-04      -4.35634708e-09      -5.76439844e-05 
       3.40759091e-04      -4.35634708e-09      -5.76439844e-05 
       0.00000000e+00       0.00000000e+00       0.00000000e+00 
       0.00000000e+00       0.00000000e+00       0.00000000e+00 
       0.00000000e+00       0.00000000e+00       0.00000000e+00 
       0.00000000e+00       0.00000000e+00       0.00000000e+00 
       6.62042424e-04      -1.20990835e-06      -4.39816228e-05 
       6.62042424e-04      -1.20990835e-06      -4.39816228e-05 
       6.62042424e-04      -1.20990835e-06      -4.39816228e-05 
       6.62042424e-04      -1.20990835e-06      -4.39816228e-05 
       0.00000000e+00       0.00000000e+00       0.00000000e+00 
       0.00000000e+00       0.00000000e+00       0.00000000e+00 
       0.00000000e+00       0.00000000e+00       0.00000000e+00 
       0.00000000e+00       0.00000000e+00       0.00000000e+00 
       6.62042424e-04      -1.20990835e-06      -4.39816228e-05 
       6.62042424e-04      -1.20990835e-06      -4.39816228e-05 
       6.62042424e-04      -1.20990835e-06      -4.39816228e-05 
       6.62042424e-04      -1.20990835e-06      -4.39816228e-05 
       3.31021212e-04      -6.04954176e-07      -2.19908114e-05 
       3.31021212e-04      -6.04954176e-07      -2.19908114e-05 
       3.31021212e-04      -6.04954176e-07      -2.19908114e-05 
       3.31021212e-04      -6.04954176e-07      -2.19908114e-05 
       0.00000000e+00       0.00000000e+00       0.00000000e+00 
       0.00000000e+00       0.00000000e+00       0.00000000e+00 
       0.00000000e+00       0.00000000e+00       0.00000000e+00 
       0.00000000e+00       0.00000000e+00       0.00000000e+00 
       6.62042034e-04       1.19203808e-06      -4.39797464e-05 
       6.62042034e-04       1.19203808e-06      -4.39797464e-05 
       6.62042034e-04       1.19203808e-06      -4.39797464e-05 
       6.62042034e-04       1.19203808e-06      -4.39797464e-05 
       0.00000000e+00       0.00000000e+00       0.00000000e+00 
       0.00000000e+00       0.00000000e+00       0.00000000e+00 
       0.00000000e+00       0.00000000e+00       0.00000000e+00 
       0.00000000e+00       0.00000000e+00       0.00000000e+00 
       6.62042034e-04       1.19203808e-06      -4.39797464e-05 
       6.62042034e-04       1.19203808e-06      -4.39797464e-05 
       6.62042034e-04       1.19203808e-06      -4.39797464e-05 
       6.62042034e-04       1.19203808e-06      -4.39797464e-05 
       3.31021017e-04       5.96019038e-07      -2.19898732e-05 
       3.31021017e-04       5.96019038e-07      -2.19898732e-05 
       3.31021017e-04       5.96019038e-07      -2.19898732e-05 
       3.31021017e-04       5.96019038e-07      -2.19898732e-05 
       0.00000000e+00       0.00000000e+00       0.00000000e+00 
       0.00000000e+00       0.00000000e+00       0.00000000e+00 
       0.00000000e+00       0.00000000e+00       0.00000000e+00 
       0.00000000e+00       0.00000000e+00       0.00000000e+00 
       6.62042424e-04      -1.20990835e-06      -4.39816228e-05 
       6.62042424e-04      -1.20990835e-06      -4.39816228e-05 
       6.62042424e-04      -1.20990835e-06      -4.39816228e-05 
       6.62042424e-04      -1.20990835e-06      -4.39816228e-05 
       0.00000000e+00       0.00000000e+00       0.00000000e+00 
       0.00000000e+00       0.00000000e+00       0.00000000e+00 
       0.00000000e+00       0.00000000e+00       0.00000000e+00 
       0.00000000e+00       0.00000000e+00       0.00000000e+00 
       6.62042424e-04      -1.20990835e-06      -4.39816228e-05 
       6.62042424e-04      -1.20990835e-06      -4.39816228e-05 
       6.62042424e-04      -1.20990835e-06      -4.39816228e-05 
       6.62042424e-04      -1.20990835e-06      -4.39816228e-05 
       3.31021212e-04      -6.04954176e-07      -2.19908114e-05 
       3.31021212e-04      -6.04954176e-07      -2.19908114e-05 
       3.31021212e-04      -6.04954176e-07      -2.19908114e-05 
       3.31021212e-04      -6.04954176e-07      -2.19908114e-05 
       0.00000000e+00       0.00000000e+00       0.00000000e+00 
       0.00000000e+00       0.00000000e+00       0.00000000e+00 
       0.00000000e+00       0.00000000e+00       0.00000000e+00 
       0.00000000e+00       0.00000000e+00       0.00000000e+00 
       6.79137124e-04      -9.15726253e-09       2.75201816e-05 
       6.79137124e-04      -9.15726253e-09       2.75201816e-05 
       6.79137124e-04      -9.15726253e-09       2.75201816e-05 
       6.79137124e-04      -9.15726253e-09       2.75201816e-05 
       0.00000000e+00       0.00000000e+00       0.00000000e+00 
       0.00000000e+00       0.00000000e+00       0.00000000e+00 
       0.00000000e+00       0.00000000e+00       0.00000000e+00 
       0.00000000e+00       0.00000000e+00       0.00000000e+00 
       6.79137124e-04      -9.15726253e-09       2.75201816e-05 
       6.79137124e-04      -9.15726253e-09       2.75201816e-05 
       6.79137124e-04      -9.15726253e-09       2.75201816e-05 
       6.79137124e-04      -9.15726253e-09       2.75201816e-05 
       3.39568562e-04      -4.57863127e-09       1.37600908e-05 
       3.39568562e-04      -4.57863127e-09       1.37600908e-05 
       3.39568562e-04      -4.57863127e-09       1.37600908e-05 
       3.39568562e-04      -4.57863127e-09       1.37600908e-05 
       0.00000000e+00       0.00000000e+00       0.00000000e+00 
       0.00000000e+00       0.00000000e+00       0.00000000e+00 
       0.00000000e+00       0.00000000e+00       0.00000000e+00 
       0.00000000e+00       0.00000000e+00       0.00000000e+00 
       6.62042034e-04       1.19203808e-06      -4.39797464e-05 
       6.62042034e-04       1.19203808e-06      -4.39797464e-05 
       6.62042034e-04       1.19203808e-06      -4.39797464e-05 
       6.62042034e-04       1.19203808e-06      -4.39797464e-05 
       0.00000000e+00       0.00000000e+00       0.00000000e+00 
       0.00000000e+00       0.00000000e+00       0.00000000e+00 
       0.00000000e+00       0.00000000e+00       0.00000000e+00 
       0.00000000e+00       0.00000000e+00       0.00000000e+00 
       6.62042034e-04       1.19203808e-06      -4.39797464e-05 
       6.62042034e-04       1.19203808e-06      -4.39797464e-05 
       6.62042034e-04       1.19203808e-06      -4.39797464e-05 
       6.62042034e-04       1.19203808e-06      -4.39797464e-05 
       3.31021017e-04       5.96019038e-07      -2.19898732e-05 
       3.31021017e-04       5.96019038e-07      -2.19898732e-05 
       3.31021017e-04       5.96019038e-07      -2.19898732e-05 
       3.31021017e-04       5.96019038e-07      -2.19898732e-05 
       0.00000000e+00       0.00000000e+00       0.00000000e+00 
       0.00000000e+00       0.00000000e+00       0.00000000e+00 
       0.00000000e+00       0.00000000e+00       0.00000000e+00 
       0.00000000e+00       0.00000000e+00       0.00000000e+00 
       8.45748432e-04       2.67615330e-05       1.18609893e-03 
       8.45748432e-04       2.67615330e-05       1.18609893e-03 
       8.45748432e-04       2.67615330e-05       1.18609893e-03 
       8.45748432e-04       2.67615330e-05       1.18609893e-03 
       0.00000000e+00       0.00000000e+00       0.00000000e+00 
       0.00000000e+00       0.00000000e+00       0.00000000e+00 
       0.00000000e+00       0.00000000e+00       0.00000000e+00 
       0.00000000e+00       0.00000000e+00       0.00000000e+00 
       8.45748432e-04       2.67615330e-05       1.18609893e-03 
       8.45748432e-04       2.67615330e-05       1.18609893e-03 
       8.45748432e-04       2.67615330e-05       1.18609893e-03 
       8.45748432e-04       2.67615330e-05       1.18609893e-03 
       4.22874216e-04       1.33807665e-05       5.93049467e-04 
       4.22874216e-04       1.33807665e-05       5.93049467e-04 
       4.22874216e-04       1.33807665e-05       5.93049467e-04 
       4.22874216e-04       1.33807665e-05       5.93049467e-04 
       0.00000000e+00       0.00000000e+00       0.00000000e+00 
       0.00000000e+00       0.00000000e+00       0.00000000e+00 
       0.00000000e+00       0.00000000e+00       0.00000000e+00 
       0.00000000e+00       0.00000000e+00       0.00000000e+00 
       8.65485861e-04      -4.35582567e-05      -1.52802706e-03 
       8.65485861e-04      -4.35582567e-05      -1.52802706e-03 
       8.65485861e-04      -4.35582567e-05      -1.52802706e-03 
       8.65485861e-04      -4.35582567e-05      -1.52802706e-03 
       0.00000000e+00       0.00000000e+00       0.00000000e+00 
       0.00000000e+00       0.00000000e+00       0.00000000e+00 
       0.00000000e+00       0.00000000e+00       0.00000000e+00 
       0.00000000e+00       0.00000000e+00       0.00000000e+00 
       8.65485861e-04      -4.35582567e-05      -1.52802706e-03 
       8.65485861e-04      -4.35582567e-05      -1.52802706e-03 
       8.65485861e-04      -4.35582567e-05      -1.52802706e-03 
       8.65485861e-04      -4.35582567e-05      -1.52802706e-03 
       4.32742931e-04      -2.17791283e-05      -7.64013530e-04 
       4.32742931e-04      -2.17791283e-05      -7.64013530e-04 
       4.32742931e-04      -2.17791283e-05      -7.64013530e-04 
       4.32742931e-04      -2.17791283e-05      -7.64013530e-04 
       0.00000000e+00       0.00000000e+00       0.00000000e+00 
       0.00000000e+00       0.00000000e+00       0.00000000e+00 
       0.00000000e+00       0.00000000e+00       0.00000000e+00 
       0.00000000e+00       0.00000000e+00       0.00000000e+00 
       8.65487440e-04       4.35342000e-05      -1.52804959e-03 
       8.65487440e-04       4.35342000e-05      -1.52804959e-03 
       8.65487440e-04       4.35342000e-05      -1.52804959e-03 
       8.65487440e-04       4.35342000e-05      -1.52804959e-03 
       0.00000000e+00       0.00000000e+00       0.00000000e+00 
       0.00000000e+00       0.00000000e+00       0.00000000e+00 
       0.00000000e+00       0.00000000e+00       0.00000000e+00 
       0.00000000e+00       0.00000000e+00       0.00000000e+00 
       8.65487440e-04       4.35342000e-05      -1.52804959e-03 
       8.65487440e-04       4.35342000e-05      -1.52804959e-03 
       8.65487440e-04       4.35342000e-05      -1.52804959e-03 
       8.65487440e-04       4.35342000e-05      -1.52804959e-03 
       4.32743720e-04       2.17671000e-05      -7.64024796e-04 
       4.32743720e-04       2.17671000e-05      -7.64024796e-04 
       4.32743720e-04       2.17671000e-05      -7.64024796e-04 
       4.32743720e-04       2.17671000e-05      -7.64024796e-04 
       0.00000000e+00       0.00000000e+00       0.00000000e+00 
       0.00000000e+00       0.00000000e+00       0.00000000e+00 
       0.00000000e+00       0.00000000e+00       0.00000000e+00 
       0.00000000e+00       0.00000000e+00       0.00000000e+00 
       8.45747824e-04      -2.67843679e-05       1.18607646e-03 
       8.45747824e-04      -2.67843679e-05       1.18607646e-03 
       8.45747824e-04      -2.67843679e-05       1.18607646e-03 
       8.45747824e-04      -2.67843679e-05       1.18607646e-03 
       0.00000000e+00       0.00000000e+00       0.00000000e+00 
       0.00000000e+00       0.00000000e+00       0.00000000e+00 
       0.00000000e+00       0.00000000e+00       0.00000000e+00 
       0.00000000e+00       0.00000000e+00       0.00000000e+00 
       8.45747824e-04      -2.67843679e-05       1.18607646e-03 
       8.45747824e-04      -2.67843679e-05       1.18607646e-03 
       8.45747824e-04      -2.67843679e-05       1.18607646e-03 
       8.45747824e-04      -2.67843679e-05       1.18607646e-03 
       4.22873912e-04      -1.33921839e-05       5.93038232e-04 
       4.22873912e-04      -1.33921839e-05       5.93038232e-04 
       4.22873912e-04      -1.33921839e-05       5.93038232e-04 
       4.22873912e-04      -1.33921839e-05       5.93038232e-04 
       6.81518183e-04      -8.71269416e-09      -1.15287969e-04 
       6.81518183e-04      -8.71269416e-09      -1.15287969e-04 
       6.81518183e-04      -8.71269416e-09      -1.15287969e-04 
       6.81518183e-04      -8.71269416e-09      -1.15287969e-04 
       8.45747824e-04      -2.67843679e-05       1.18607646e-03 
       8.45747824e-04      -2.67843679e-05       1.18607646e-03 
       8.45747824e-04      -2.67843679e-05       1.18607646e-03 
       8.45747824e-04      -2.67843679e-05       1.18607646e-03 
       6.81518183e-04      -8.71269416e-09      -1.15287969e-04 
       6.81518183e-04      -8.71269416e-09      -1.15287969e-04 
       6.81518183e-04      -8.71269416e-09      -1.15287969e-04 
       6.81518183e-04      -8.71269416e-09      -1.15287969e-04 
       8.45747824e-04      -2.67843679e-05       1.18607646e-03 
       8.45747824e-04      -2.67843679e-05       1.18607646e-03 
       8.45747824e-04      -2.67843679e-05       1.18607646e-03 
       8.45747824e-04      -2.67843679e-05       1.18607646e-03 
       7.63633004e-04      -1.33965403e-05       5.35394247e-04 
       7.63633004e-04      -1.33965403e-05       5.35394247e-04 
       7.63633004e-04      -1.33965403e-05       5.35394247e-04 
       7.63633004e-04      -1.33965403e-05       5.35394247e-04 
       6.81518183e-04      -8.71269416e-09      -1.15287969e-04 
       6.81518183e-04      -8.71269416e-09      -1.15287969e-04 
       6.81518183e-04      -8.71269416e-09      -1.15287969e-04 
       6.81518183e-04      -8.71269416e-09      -1.15287969e-04 
       8.45748432e-04       2.67615330e-05       1.18609893e-03 
       8.45748432e-04       2.67615330e-05       1.18609893e-03 
       8.45748432e-04       2.67615330e-05       1.18609893e-03 
       8.45748432e-04       2.67615330e-05       1.18609893e-03 
       6.81518183e-04      -8.71269416e-09      -1.15287969e-04 
       6.81518183e-04      -8.71269416e-09      -1.15287969e-04 
       6.81518183e-04      -8.71269416e-09      -1.15287969e-04 
       6.81518183e-04      -8.71269416e-09      -1.15287969e-04 
       8.45748432e-04       2.67615330e-05       1.18609893e-03 
       8.45748432e-04       2.67615330e-05       1.18609893e-03 
       8.45748432e-04       2.67615330e-05       1.18609893e-03 
       8.45748432e-04       2.67615330e-05       1.18609893e-03 
       7.63633307e-04       1.33764101e-05       5.35405483e-04 
       7.63633307e-04       1.33764101e-05       5.35405483e-04 
       7.63633307e-04       1.33764101e-05       5.35405483e-04 
       7.63633307e-04       1.33764101e-05       5.35405483e-04 
       6.79137124e-04      -9.15726253e-09       2.75201816e-05 
       6.79137124e-04      -9.15726253e-09       2.75201816e-05 
       6.79137124e-04      -9.15726253e-09       2.75201816e-05 
       6.79137124e-04      -9.15726253e-09       2.75201816e-05 
       8.65487440e-04       4.35342000e-05      -1.52804959e-03 
       8.65487440e-04       4.35342000e-05      -1.52804959e-03 
       8.65487440e-04       4.35342000e-05      -1.52804959e-03 
       8.65487440e-04       4.35342000e-05      -1.52804959e-03 
       6.79137124e-04      -9.15726253e-09       2.75201816e-05 
       6.79137124e-04      -9.15726253e-09       2.75201816e-05 
       6.79137124e-04      -9.15726253e-09       2.75201816e-05 
       6.79137124e-04      -9.15726253e-09       2.75201816e-05 
       8.65487440e-04       4.35342000e-05      -1.52804959e-03 
       8.65487440e-04       4.35342000e-05      -1.52804959e-03 
       8.65487440e-04       4.35342000e-05      -1.52804959e-03 
       8.65487440e-04       4.35342000e-05      -1.52804959e-03 
       7.72312282e-04       2.17625214e-05      -7.50264705e-04 
       7.72312282e-04       2.17625214e-05      -7.50264705e-04 
       7.72312282e-04       2.17625214e-05      -7.50264705e-04 
       7.72312282e-04       2.17625214e-05      -7.50264705e-04 
       6.79137124e-04      -9.15726253e-09       2.75201816e-05 
       6.79137124e-04      -9.15726253e-09       2.75201816e-05 
       6.79137124e-04      -9.15726253e-09       2.75201816e-05 
       6.79137124e-04      -9.15726253e-09       2.75201816e-05 
       6.62042034e-04       1.19203808e-06      -4.39797464e-05 
       6.62042034e-04       1.19203808e-06      -4.39797464e-05 