# vtk DataFile Version 2.0
./output/Static_Tower/Static_Tower_0008.vtk
ASCII
DATASET UNSTRUCTURED_GRID

POINTS 13260 float
      -4.427465e+00       4.404287e+00      -9.630370e-03 
      -4.400659e+00       4.406971e+00      -9.630370e-03 
      -4.402535e+00       4.425713e+00       9.630370e-03 
      -4.429341e+00       4.423029e+00       9.630370e-03 
      -3.985417e+00      -1.071278e-02       4.329448e+00 
      -3.958612e+00      -8.028887e-03       4.329448e+00 
      -3.960488e+00       1.071276e-02       4.348708e+00 
      -3.987294e+00       8.028867e-03       4.348708e+00 
      -4.413673e+00       4.401748e+00      -1.361940e-02 
      -4.396046e+00       4.416898e+00       0.000000e+00 
      -4.416327e+00       4.428252e+00       1.361940e-02 
      -4.433954e+00       4.413102e+00       0.000000e+00 
      -3.971626e+00      -1.325235e-02       4.325458e+00 
      -3.953998e+00       1.897786e-03       4.339078e+00 
      -3.974280e+00       1.325233e-02       4.352697e+00 
      -3.991907e+00      -1.897806e-03       4.339078e+00 
      -4.206441e+00       2.196787e+00       2.159909e+00 
      -4.179635e+00       2.199471e+00       2.159909e+00 
      -4.181512e+00       2.218213e+00       2.179169e+00 
      -4.208317e+00       2.215529e+00       2.179169e+00 
       4.400662e+00       4.406966e+00      -9.630048e-03 
       4.427468e+00       4.404291e+00      -9.630048e-03 
       4.429338e+00       4.423034e+00       9.630048e-03 
       4.402532e+00       4.425709e+00       9.630048e-03 
       3.960107e+00      -8.034015e-03       4.329600e+00 
       3.986913e+00      -1.070893e-02       4.329600e+00 
       3.988783e+00       8.033994e-03       4.348860e+00 
       3.961977e+00       1.070891e-02       4.348860e+00 
       4.413678e+00       4.401747e+00      -1.361894e-02 
       4.433955e+00       4.413109e+00       0.000000e+00 
       4.416322e+00       4.428253e+00       1.361894e-02 
       4.396045e+00       4.416891e+00       0.000000e+00 
       3.973122e+00      -1.325326e-02       4.325611e+00 
       3.993400e+00      -1.891463e-03       4.339230e+00 
       3.975767e+00       1.325324e-02       4.352849e+00 
       3.955490e+00       1.891442e-03       4.339230e+00 
       4.180384e+00       2.199466e+00       2.159985e+00 
       4.207191e+00       2.196791e+00       2.159985e+00 
       4.209061e+00       2.215534e+00       2.179245e+00 
       4.182254e+00       2.218209e+00       2.179245e+00 
      -4.400659e+00      -4.406971e+00      -9.630370e-03 
      -4.427465e+00      -4.404287e+00      -9.630370e-03 
      -4.429341e+00      -4.423029e+00       9.630370e-03 
      -4.402535e+00      -4.425713e+00       9.630370e-03 
      -3.958612e+00       8.028867e-03       4.329448e+00 
      -3.985417e+00       1.071276e-02       4.329448e+00 
      -3.987294e+00      -8.028887e-03       4.348708e+00 
      -3.960488e+00      -1.071278e-02       4.348708e+00 
      -4.413673e+00      -4.401748e+00      -1.361940e-02 
      -4.433954e+00      -4.413102e+00       0.000000e+00 
      -4.416327e+00      -4.428252e+00       1.361940e-02 
      -4.396046e+00      -4.416898e+00       0.000000e+00 
      -3.971626e+00       1.325233e-02       4.325458e+00 
      -3.991907e+00       1.897786e-03       4.339078e+00 
      -3.974280e+00      -1.325235e-02       4.352697e+00 
      -3.953998e+00      -1.897806e-03       4.339078e+00 
      -4.179635e+00      -2.199471e+00       2.159909e+00 
      -4.206441e+00      -2.196787e+00       2.159909e+00 
      -4.208317e+00      -2.215529e+00       2.179169e+00 
      -4.181512e+00      -2.218213e+00       2.179169e+00 
      -4.406969e+00       4.400660e+00      -9.630977e-03 
      -4.404290e+00       4.427467e+00      -9.630977e-03 
      -4.423031e+00       4.429340e+00       9.630977e-03 
      -4.425710e+00       4.402533e+00       9.630977e-03 
       8.758271e-03       3.959359e+00       4.329523e+00 
       1.143724e-02       3.986165e+00       4.329523e+00 
      -7.303515e-03       3.988038e+00       4.348785e+00 
      -9.982482e-03       3.961232e+00       4.348785e+00 
      -4.401748e+00       4.413676e+00      -1.362026e-02 
      -4.413106e+00       4.433955e+00       0.000000e+00 
      -4.428252e+00       4.416324e+00       1.362026e-02 
      -4.416894e+00       4.396045e+00       0.000000e+00 
       1.397909e-02       3.972374e+00       4.325533e+00 
       2.621694e-03       3.992654e+00       4.339154e+00 
      -1.252434e-02       3.975023e+00       4.352774e+00 
      -1.166938e-03       3.954744e+00       4.339154e+00 
      -2.199105e+00       4.180010e+00       2.159946e+00 
      -2.196426e+00       4.206816e+00       2.159946e+00 
      -2.215167e+00       4.208689e+00       2.179208e+00 
      -2.217846e+00       4.181883e+00       2.179208e+00 
      -4.404290e+00      -4.427467e+00      -9.630977e-03 
      -4.406969e+00      -4.400660e+00      -9.630977e-03 
      -4.425710e+00      -4.402533e+00       9.630977e-03 
      -4.423031e+00      -4.429340e+00       9.630977e-03 
       1.143724e-02      -3.986165e+00       4.329523e+00 
       8.758271e-03      -3.959359e+00       4.329523e+00 
      -9.982482e-03      -3.961232e+00       4.348785e+00 
      -7.303516e-03      -3.988038e+00       4.348785e+00 
      -4.401748e+00      -4.413676e+00      -1.362026e-02 
      -4.416894e+00      -4.396045e+00       0.000000e+00 
      -4.428252e+00      -4.416324e+00       1.362026e-02 
      -4.413106e+00      -4.433955e+00       0.000000e+00 
       1.397909e-02      -3.972374e+00       4.325533e+00 
      -1.166938e-03      -3.954744e+00       4.339154e+00 
      -1.252434e-02      -3.975023e+00       4.352774e+00 
       2.621693e-03      -3.992654e+00       4.339154e+00 
      -2.196426e+00      -4.206816e+00       2.159946e+00 
      -2.199105e+00      -4.180010e+00       2.159946e+00 
      -2.217846e+00      -4.181883e+00       2.179208e+00 
      -2.215167e+00      -4.208689e+00       2.179208e+00 
       4.404288e+00       4.427466e+00      -9.629441e-03 
       4.406968e+00       4.400660e+00      -9.629441e-03 
       4.425712e+00       4.402534e+00       9.629441e-03 
       4.423032e+00       4.429340e+00       9.629441e-03 
      -9.984451e-03       3.986165e+00       4.329524e+00 
      -7.304610e-03       3.959359e+00       4.329524e+00 
       1.143921e-02       3.961233e+00       4.348783e+00 
       8.759366e-03       3.988039e+00       4.348783e+00 
       4.401746e+00       4.413675e+00      -1.361809e-02 
       4.416895e+00       4.396045e+00       0.000000e+00 
       4.428254e+00       4.416325e+00       1.361809e-02 
       4.413105e+00       4.433955e+00       0.000000e+00 
      -1.252650e-02       3.972374e+00       4.325536e+00 
       2.622312e-03       3.954744e+00       4.339154e+00 
       1.398126e-02       3.975024e+00       4.352772e+00 
      -1.167556e-03       3.992654e+00       4.339154e+00 
       2.197152e+00       4.206815e+00       2.159947e+00 
       2.199832e+00       4.180009e+00       2.159947e+00 
       2.218576e+00       4.181883e+00       2.179206e+00 
       2.215896e+00       4.208689e+00       2.179206e+00 
       4.427468e+00      -4.404291e+00      -9.630048e-03 
       4.400662e+00      -4.406966e+00      -9.630048e-03 
       4.402532e+00      -4.425709e+00       9.630048e-03 
       4.429338e+00      -4.423034e+00       9.630048e-03 
       3.986913e+00       1.070891e-02       4.329600e+00 
       3.960107e+00       8.033994e-03       4.329600e+00 
       3.961977e+00      -1.070893e-02       4.348860e+00 
       3.988783e+00      -8.034015e-03       4.348860e+00 
       4.413678e+00      -4.401747e+00      -1.361894e-02 
       4.396045e+00      -4.416891e+00       0.000000e+00 
       4.416322e+00      -4.428253e+00       1.361894e-02 
       4.433955e+00      -4.413109e+00       0.000000e+00 
       3.973122e+00       1.325324e-02       4.325611e+00 
       3.955490e+00      -1.891463e-03       4.339230e+00 
       3.975767e+00      -1.325326e-02       4.352849e+00 
       3.993400e+00       1.891442e-03       4.339230e+00 
       4.207191e+00      -2.196791e+00       2.159985e+00 
       4.180384e+00      -2.199466e+00       2.159985e+00 
       4.182254e+00      -2.218209e+00       2.179245e+00 
       4.209061e+00      -2.215534e+00       2.179245e+00 
       4.406968e+00      -4.400660e+00      -9.629441e-03 
       4.404288e+00      -4.427466e+00      -9.629441e-03 
       4.423032e+00      -4.429340e+00       9.629441e-03 
       4.425712e+00      -4.402534e+00       9.629441e-03 
      -7.304611e-03      -3.959359e+00       4.329524e+00 
      -9.984451e-03      -3.986165e+00       4.329524e+00 
       8.759366e-03      -3.988039e+00       4.348783e+00 
       1.143921e-02      -3.961233e+00       4.348783e+00 
       4.401746e+00      -4.413675e+00      -1.361809e-02 
       4.413105e+00      -4.433955e+00       0.000000e+00 
       4.428254e+00      -4.416325e+00       1.361809e-02 
       4.416895e+00      -4.396045e+00       0.000000e+00 
      -1.252650e-02      -3.972374e+00       4.325536e+00 
      -1.167556e-03      -3.992654e+00       4.339154e+00 
       1.398126e-02      -3.975024e+00       4.352772e+00 
       2.622311e-03      -3.954744e+00       4.339154e+00 
       2.199832e+00      -4.180009e+00       2.159947e+00 
       2.197152e+00      -4.206816e+00       2.159947e+00 
       2.215896e+00      -4.208689e+00       2.179206e+00 
       2.218576e+00      -4.181883e+00       2.179206e+00 
      -4.381888e+00      -4.415204e+00      -3.353092e-03 
      -4.415135e+00      -4.381887e+00      -3.353092e-03 
      -4.448112e+00      -4.414796e+00       3.353092e-03 
      -4.414865e+00      -4.448113e+00       3.353092e-03 
      -3.939649e+00      -3.973881e+00       4.336980e+00 
      -3.972897e+00      -3.940564e+00       4.336980e+00 
      -4.005874e+00      -3.973473e+00       4.343687e+00 
[...]
POINT_DATA     13260 
VECTORS Displacements float
       0.00000000e+00       0.00000000e+00       0.00000000e+00 
       0.00000000e+00       0.00000000e+00       0.00000000e+00 
       0.00000000e+00       0.00000000e+00       0.00000000e+00 
       0.00000000e+00       0.00000000e+00       0.00000000e+00 
       7.47374950e-04      -1.00538556e-08      -1.22125148e-04 
       7.47374950e-04      -1.00538556e-08      -1.22125148e-04 
       7.47374950e-04      -1.00538556e-08      -1.22125148e-04 
       7.47374950e-04      -1.00538556e-08      -1.22125148e-04 
       0.00000000e+00       0.00000000e+00       0.00000000e+00 
       0.00000000e+00       0.00000000e+00       0.00000000e+00 
       0.00000000e+00       0.00000000e+00       0.00000000e+00 
       0.00000000e+00       0.00000000e+00       0.00000000e+00 
       7.47374950e-04      -1.00538556e-08      -1.22125148e-04 
       7.47374950e-04      -1.00538556e-08      -1.22125148e-04 
       7.47374950e-04      -1.00538556e-08      -1.22125148e-04 
       7.47374950e-04      -1.00538556e-08      -1.22125148e-04 
       3.73687475e-04      -5.02692779e-09      -6.10625739e-05 
       3.73687475e-04      -5.02692779e-09      -6.10625739e-05 
       3.73687475e-04      -5.02692779e-09      -6.10625739e-05 
       3.73687475e-04      -5.02692779e-09      -6.10625739e-05 
       0.00000000e+00       0.00000000e+00       0.00000000e+00 
       0.00000000e+00       0.00000000e+00       0.00000000e+00 
       0.00000000e+00       0.00000000e+00       0.00000000e+00 
       0.00000000e+00       0.00000000e+00       0.00000000e+00 
       7.44953838e-04      -1.05226019e-08       2.96211146e-05 
       7.44953838e-04      -1.05226019e-08       2.96211146e-05 
       7.44953838e-04      -1.05226019e-08       2.96211146e-05 
       7.44953838e-04      -1.05226019e-08       2.96211146e-05 
       0.00000000e+00       0.00000000e+00       0.00000000e+00 
       0.00000000e+00       0.00000000e+00       0.00000000e+00 
       0.00000000e+00       0.00000000e+00       0.00000000e+00 
       0.00000000e+00       0.00000000e+00       0.00000000e+00 
       7.44953838e-04      -1.05226019e-08       2.96211146e-05 
       7.44953838e-04      -1.05226019e-08       2.96211146e-05 
       7.44953838e-04      -1.05226019e-08       2.96211146e-05 
       7.44953838e-04      -1.05226019e-08       2.96211146e-05 
       3.72476919e-04      -5.26130097e-09       1.48105573e-05 
       3.72476919e-04      -5.26130097e-09       1.48105573e-05 
       3.72476919e-04      -5.26130097e-09       1.48105573e-05 
       3.72476919e-04      -5.26130097e-09       1.48105573e-05 
       0.00000000e+00       0.00000000e+00       0.00000000e+00 
       0.00000000e+00       0.00000000e+00       0.00000000e+00 
       0.00000000e+00       0.00000000e+00       0.00000000e+00 
       0.00000000e+00       0.00000000e+00       0.00000000e+00 
       7.47374950e-04      -1.00538556e-08      -1.22125148e-04 
       7.47374950e-04      -1.00538556e-08      -1.22125148e-04 
       7.47374950e-04      -1.00538556e-08      -1.22125148e-04 
       7.47374950e-04      -1.00538556e-08      -1.22125148e-04 
       0.00000000e+00       0.00000000e+00       0.00000000e+00 
       0.00000000e+00       0.00000000e+00       0.00000000e+00 
       0.00000000e+00       0.00000000e+00       0.00000000e+00 
       0.00000000e+00       0.00000000e+00       0.00000000e+00 
       7.47374950e-04      -1.00538556e-08      -1.22125148e-04 
       7.47374950e-04      -1.00538556e-08      -1.22125148e-04 
       7.47374950e-04      -1.00538556e-08      -1.22125148e-04 
       7.47374950e-04      -1.00538556e-08      -1.22125148e-04 
       3.73687475e-04      -5.02692779e-09      -6.10625739e-05 
       3.73687475e-04      -5.02692779e-09      -6.10625739e-05 
       3.73687475e-04      -5.02692779e-09      -6.10625739e-05 
       3.73687475e-04      -5.02692779e-09      -6.10625739e-05 
       0.00000000e+00       0.00000000e+00       0.00000000e+00 
       0.00000000e+00       0.00000000e+00       0.00000000e+00 
       0.00000000e+00       0.00000000e+00       0.00000000e+00 
       0.00000000e+00       0.00000000e+00       0.00000000e+00 
       7.27377935e-04      -1.23229327e-06      -4.63547735e-05 
       7.27377935e-04      -1.23229327e-06      -4.63547735e-05 
       7.27377935e-04      -1.23229327e-06      -4.63547735e-05 
       7.27377935e-04      -1.23229327e-06      -4.63547735e-05 
       0.00000000e+00       0.00000000e+00       0.00000000e+00 
       0.00000000e+00       0.00000000e+00       0.00000000e+00 
       0.00000000e+00       0.00000000e+00       0.00000000e+00 
       0.00000000e+00       0.00000000e+00       0.00000000e+00 
       7.27377935e-04      -1.23229327e-06      -4.63547735e-05 
       7.27377935e-04      -1.23229327e-06      -4.63547735e-05 
       7.27377935e-04      -1.23229327e-06      -4.63547735e-05 
       7.27377935e-04      -1.23229327e-06      -4.63547735e-05 
       3.63688967e-04      -6.16146634e-07      -2.31773867e-05 
       3.63688967e-04      -6.16146634e-07      -2.31773867e-05 
       3.63688967e-04      -6.16146634e-07      -2.31773867e-05 
       3.63688967e-04      -6.16146634e-07      -2.31773867e-05 
       0.00000000e+00       0.00000000e+00       0.00000000e+00 
       0.00000000e+00       0.00000000e+00       0.00000000e+00 
       0.00000000e+00       0.00000000e+00       0.00000000e+00 
       0.00000000e+00       0.00000000e+00       0.00000000e+00 
       7.27377542e-04       1.21171643e-06      -4.63526803e-05 
       7.27377542e-04       1.21171643e-06      -4.63526803e-05 
       7.27377542e-04       1.21171643e-06      -4.63526803e-05 
       7.27377542e-04       1.21171643e-06      -4.63526803e-05 
       0.00000000e+00       0.00000000e+00       0.00000000e+00 
       0.00000000e+00       0.00000000e+00       0.00000000e+00 
       0.00000000e+00       0.00000000e+00       0.00000000e+00 
       0.00000000e+00       0.00000000e+00       0.00000000e+00 
       7.27377542e-04       1.21171643e-06      -4.63526803e-05 
       7.27377542e-04       1.21171643e-06      -4.63526803e-05 
       7.27377542e-04       1.21171643e-06      -4.63526803e-05 
       7.27377542e-04       1.21171643e-06      -4.63526803e-05 
       3.63688771e-04       6.05858214e-07      -2.31763402e-05 
       3.63688771e-04       6.05858214e-07      -2.31763402e-05 
       3.63688771e-04       6.05858214e-07      -2.31763402e-05 
       3.63688771e-04       6.05858214e-07      -2.31763402e-05 
       0.00000000e+00       0.00000000e+00       0.00000000e+00 
       0.00000000e+00       0.00000000e+00       0.00000000e+00 
       0.00000000e+00       0.00000000e+00       0.00000000e+00 
       0.00000000e+00       0.00000000e+00       0.00000000e+00 
       7.27377935e-04      -1.23229327e-06      -4.63547735e-05 
       7.27377935e-04      -1.23229327e-06      -4.63547735e-05 
       7.27377935e-04      -1.23229327e-06      -4.63547735e-05 
       7.27377935e-04      -1.23229327e-06      -4.63547735e-05 
       0.00000000e+00       0.00000000e+00       0.00000000e+00 
       0.00000000e+00       0.00000000e+00       0.00000000e+00 
       0.00000000e+00       0.00000000e+00       0.00000000e+00 
       0.00000000e+00       0.00000000e+00       0.00000000e+00 
       7.27377935e-04      -1.23229327e-06      -4.63547735e-05 
       7.27377935e-04      -1.23229327e-06      -4.63547735e-05 
       7.27377935e-04      -1.23229327e-06      -4.63547735e-05 
       7.27377935e-04      -1.23229327e-06      -4.63547735e-05 
       3.63688967e-04      -6.16146634e-07      -2.31773867e-05 
       3.63688967e-04      -6.16146634e-07      -2.31773867e-05 
       3.63688967e-04      -6.16146634e-07      -2.31773867e-05 
       3.63688967e-04      -6.16146634e-07      -2.31773867e-05 
       0.00000000e+00       0.00000000e+00       0.00000000e+00 
       0.00000000e+00       0.00000000e+00       0.00000000e+00 
       0.00000000e+00       0.00000000e+00       0.00000000e+00 
       0.00000000e+00       0.00000000e+00       0.00000000e+00 
       7.44953838e-04      -1.05226019e-08       2.96211146e-05 
       7.44953838e-04      -1.05226019e-08       2.96211146e-05 
       7.44953838e-04      -1.05226019e-08       2.96211146e-05 
       7.44953838e-04      -1.05226019e-08       2.96211146e-05 
       0.00000000e+00       0.00000000e+00       0.00000000e+00 
       0.00000000e+00       0.00000000e+00       0.00000000e+00 
       0.00000000e+00       0.00000000e+00       0.00000000e+00 
       0.00000000e+00       0.00000000e+00       0.00000000e+00 
       7.44953838e-04      -1.05226019e-08       2.96211146e-05 
       7.44953838e-04      -1.05226019e-08       2.96211146e-05 
       7.44953838e-04      -1.05226019e-08       2.96211146e-05 
       7.44953838e-04      -1.05226019e-08       2.96211146e-05 
       3.72476919e-04      -5.26130097e-09       1.48105573e-05 
       3.72476919e-04      -5.26130097e-09       1.48105573e-05 
       3.72476919e-04      -5.26130097e-09       1.48105573e-05 
       3.72476919e-04      -5.26130097e-09       1.48105573e-05 
       0.00000000e+00       0.00000000e+00       0.00000000e+00 
       0.00000000e+00       0.00000000e+00       0.00000000e+00 
       0.00000000e+00       0.00000000e+00       0.00000000e+00 
       0.00000000e+00       0.00000000e+00       0.00000000e+00 
       7.27377542e-04       1.21171643e-06      -4.63526803e-05 
       7.27377542e-04       1.21171643e-06      -4.63526803e-05 
       7.27377542e-04       1.21171643e-06      -4.63526803e-05 
       7.27377542e-04       1.21171643e-06      -4.63526803e-05 
       0.00000000e+00       0.00000000e+00       0.00000000e+00 
       0.00000000e+00       0.00000000e+00       0.00000000e+00 
       0.00000000e+00       0.00000000e+00       0.00000000e+00 
       0.00000000e+00       0.00000000e+00       0.00000000e+00 
       7.27377542e-04       1.21171643e-06      -4.63526803e-05 
       7.27377542e-04       1.21171643e-06      -4.63526803e-05 
       7.27377542e-04       1.21171643e-06      -4.63526803e-05 
       7.27377542e-04       1.21171643e-06      -4.63526803e-05 
       3.63688771e-04       6.05858214e-07      -2.31763402e-05 
       3.63688771e-04       6.05858214e-07      -2.31763402e-05 
       3.63688771e-04       6.05858214e-07      -2.31763402e-05 
       3.63688771e-04       6.05858214e-07      -2.31763402e-05 
       0.00000000e+00       0.00000000e+00       0.00000000e+00 
       0.00000000e+00       0.00000000e+00       0.00000000e+00 
       0.00000000e+00       0.00000000e+00       0.00000000e+00 
       0.00000000e+00       0.00000000e+00       0.00000000e+00 
       9.38931001e-04       2.31794420e-05       1.13341800e-03 
       9.38931001e-04       2.31794420e-05       1.13341800e-03 
       9.38931001e-04       2.31794420e-05       1.13341800e-03 
       9.38931001e-04       2.31794420e-05       1.13341800e-03 
       0.00000000e+00       0.00000000e+00       0.00000000e+00 
       0.00000000e+00       0.00000000e+00       0.00000000e+00 
       0.00000000e+00       0.00000000e+00       0.00000000e+00 
       0.00000000e+00       0.00000000e+00       0.00000000e+00 
       9.38931001e-04       2.31794420e-05       1.13341800e-03 
       9.38931001e-04       2.31794420e-05       1.13341800e-03 
       9.38931001e-04       2.31794420e-05       1.13341800e-03 
       9.38931001e-04       2.31794420e-05       1.13341800e-03 
       4.69465501e-04       1.15897210e-05       5.66709001e-04 
       4.69465501e-04       1.15897210e-05       5.66709001e-04 
       4.69465501e-04       1.15897210e-05       5.66709001e-04 
       4.69465501e-04       1.15897210e-05       5.66709001e-04 
       0.00000000e+00       0.00000000e+00       0.00000000e+00 
       0.00000000e+00       0.00000000e+00       0.00000000e+00 
       0.00000000e+00       0.00000000e+00       0.00000000e+00 
       0.00000000e+00       0.00000000e+00       0.00000000e+00 
       9.60579650e-04      -4.22277345e-05      -1.48490071e-03 
       9.60579650e-04      -4.22277345e-05      -1.48490071e-03 
       9.60579650e-04      -4.22277345e-05      -1.48490071e-03 
       9.60579650e-04      -4.22277345e-05      -1.48490071e-03 
       0.00000000e+00       0.00000000e+00       0.00000000e+00 
       0.00000000e+00       0.00000000e+00       0.00000000e+00 
       0.00000000e+00       0.00000000e+00       0.00000000e+00 
       0.00000000e+00       0.00000000e+00       0.00000000e+00 
       9.60579650e-04      -4.22277345e-05      -1.48490071e-03 
       9.60579650e-04      -4.22277345e-05      -1.48490071e-03 
       9.60579650e-04      -4.22277345e-05      -1.48490071e-03 
       9.60579650e-04      -4.22277345e-05      -1.48490071e-03 
       4.80289825e-04      -2.11138672e-05      -7.42450355e-04 
       4.80289825e-04      -2.11138672e-05      -7.42450355e-04 
       4.80289825e-04      -2.11138672e-05      -7.42450355e-04 
       4.80289825e-04      -2.11138672e-05      -7.42450355e-04 
       0.00000000e+00       0.00000000e+00       0.00000000e+00 
       0.00000000e+00       0.00000000e+00       0.00000000e+00 
       0.00000000e+00       0.00000000e+00       0.00000000e+00 
       0.00000000e+00       0.00000000e+00       0.00000000e+00 
       9.60581358e-04       4.21998326e-05      -1.48492758e-03 
       9.60581358e-04       4.21998326e-05      -1.48492758e-03 
       9.60581358e-04       4.21998326e-05      -1.48492758e-03 
       9.60581358e-04       4.21998326e-05      -1.48492758e-03 
       0.00000000e+00       0.00000000e+00       0.00000000e+00 
       0.00000000e+00       0.00000000e+00       0.00000000e+00 
       0.00000000e+00       0.00000000e+00       0.00000000e+00 
       0.00000000e+00       0.00000000e+00       0.00000000e+00 
       9.60581358e-04       4.21998326e-05      -1.48492758e-03 
       9.60581358e-04       4.21998326e-05      -1.48492758e-03 
       9.60581358e-04       4.21998326e-05      -1.48492758e-03 
       9.60581358e-04       4.21998326e-05      -1.48492758e-03 
       4.80290679e-04       2.10999163e-05      -7.42463789e-04 
       4.80290679e-04       2.10999163e-05      -7.42463789e-04 
       4.80290679e-04       2.10999163e-05      -7.42463789e-04 
       4.80290679e-04       2.10999163e-05      -7.42463789e-04 
       0.00000000e+00       0.00000000e+00       0.00000000e+00 
       0.00000000e+00       0.00000000e+00       0.00000000e+00 
       0.00000000e+00       0.00000000e+00       0.00000000e+00 
       0.00000000e+00       0.00000000e+00       0.00000000e+00 
       9.38930264e-04      -2.32060299e-05       1.13339124e-03 
       9.38930264e-04      -2.32060299e-05       1.13339124e-03 
       9.38930264e-04      -2.32060299e-05       1.13339124e-03 
       9.38930264e-04      -2.32060299e-05       1.13339124e-03 
       0.00000000e+00       0.00000000e+00       0.00000000e+00 
       0.00000000e+00       0.00000000e+00       0.00000000e+00 
       0.00000000e+00       0.00000000e+00       0.00000000e+00 
       0.00000000e+00       0.00000000e+00       0.00000000e+00 
       9.38930264e-04      -2.32060299e-05       1.13339124e-03 
       9.38930264e-04      -2.32060299e-05       1.13339124e-03 
       9.38930264e-04      -2.32060299e-05       1.13339124e-03 
       9.38930264e-04      -2.32060299e-05       1.13339124e-03 
       4.69465132e-04      -1.16030150e-05       5.66695619e-04 
       4.69465132e-04      -1.16030150e-05       5.66695619e-04 
       4.69465132e-04      -1.16030150e-05       5.66695619e-04 
       4.69465132e-04      -1.16030150e-05       5.66695619e-04 
       7.47374950e-04      -1.00538556e-08      -1.22125148e-04 
       7.47374950e-04      -1.00538556e-08      -1.22125148e-04 
       7.47374950e-04      -1.00538556e-08      -1.22125148e-04 
       7.47374950e-04      -1.00538556e-08      -1.22125148e-04 
       9.38930264e-04      -2.32060299e-05       1.13339124e-03 
       9.38930264e-04      -2.32060299e-05       1.13339124e-03 
       9.38930264e-04      -2.32060299e-05       1.13339124e-03 
       9.38930264e-04      -2.32060299e-05       1.13339124e-03 
       7.47374950e-04      -1.00538556e-08      -1.22125148e-04 
       7.47374950e-04      -1.00538556e-08      -1.22125148e-04 
       7.47374950e-04      -1.00538556e-08      -1.22125148e-04 
       7.47374950e-04      -1.00538556e-08      -1.22125148e-04 
       9.38930264e-04      -2.32060299e-05       1.13339124e-03 
       9.38930264e-04      -2.32060299e-05       1.13339124e-03 
       9.38930264e-04      -2.32060299e-05       1.13339124e-03 
       9.38930264e-04      -2.32060299e-05       1.13339124e-03 
       8.43152607e-04      -1.16080419e-05       5.05633045e-04 
       8.43152607e-04      -1.16080419e-05       5.05633045e-04 
       8.43152607e-04      -1.16080419e-05       5.05633045e-04 
       8.43152607e-04      -1.16080419e-05       5.05633045e-04 
       7.47374950e-04      -1.00538556e-08      -1.22125148e-04 
       7.47374950e-04      -1.00538556e-08      -1.22125148e-04 
       7.47374950e-04      -1.00538556e-08      -1.22125148e-04 
       7.47374950e-04      -1.00538556e-08      -1.22125148e-04 
       9.38931001e-04       2.31794420e-05       1.13341800e-03 
       9.38931001e-04       2.31794420e-05       1.13341800e-03 
       9.38931001e-04       2.31794420e-05       1.13341800e-03 
       9.38931001e-04       2.31794420e-05       1.13341800e-03 
       7.47374950e-04      -1.00538556e-08      -1.22125148e-04 
       7.47374950e-04      -1.00538556e-08      -1.22125148e-04 
       7.47374950e-04      -1.00538556e-08      -1.22125148e-04 
       7.47374950e-04      -1.00538556e-08      -1.22125148e-04 
       9.38931001e-04       2.31794420e-05       1.13341800e-03 
       9.38931001e-04       2.31794420e-05       1.13341800e-03 
       9.38931001e-04       2.31794420e-05       1.13341800e-03 
       9.38931001e-04       2.31794420e-05       1.13341800e-03 
       8.43152976e-04       1.15846941e-05       5.05646427e-04 
       8.43152976e-04       1.15846941e-05       5.05646427e-04 
       8.43152976e-04       1.15846941e-05       5.05646427e-04 
       8.43152976e-04       1.15846941e-05       5.05646427e-04 
       7.44953838e-04      -1.05226019e-08       2.96211146e-05 
       7.44953838e-04      -1.05226019e-08       2.96211146e-05 
       7.44953838e-04      -1.05226019e-08       2.96211146e-05 
       7.44953838e-04      -1.05226019e-08       2.96211146e-05 
       9.60581358e-04       4.21998326e-05      -1.48492758e-03 
       9.60581358e-04       4.21998326e-05      -1.48492758e-03 
       9.60581358e-04       4.21998326e-05      -1.48492758e-03 
       9.60581358e-04       4.21998326e-05      -1.48492758e-03 
       7.44953838e-04      -1.05226019e-08       2.96211146e-05 
       7.44953838e-04      -1.05226019e-08       2.96211146e-05 
       7.44953838e-04      -1.05226019e-08       2.96211146e-05 
       7.44953838e-04      -1.05226019e-08       2.96211146e-05 
       9.60581358e-04       4.21998326e-05      -1.48492758e-03 
       9.60581358e-04       4.21998326e-05      -1.48492758e-03 
       9.60581358e-04       4.21998326e-05      -1.48492758e-03 
       9.60581358e-04       4.21998326e-05      -1.48492758e-03 
       8.52767598e-04       2.10946550e-05      -7.27653232e-04 
       8.52767598e-04       2.10946550e-05      -7.27653232e-04 
       8.52767598e-04       2.10946550e-05      -7.27653232e-04 
       8.52767598e-04       2.10946550e-05      -7.27653232e-04 
       7.44953838e-04      -1.05226019e-08       2.96211146e-05 
       7.44953838e-04      -1.05226019e-08       2.96211146e-05 
       7.44953838e-04      -1.05226019e-08       2.96211146e-05 
       7.44953838e-04      -1.05226019e-08       2.96211146e-05 
       7.27377542e-04       1.21171643e-06      -4.63526803e-05 
       7.27377542e-04       1.21171643e-06      -4.63526803e-05 