# vtk DataFile Version 2.0
./output/Static_Tower/Static_Tower_0007.vtk
ASCII
DATASET UNSTRUCTURED_GRID

POINTS 13260 float
      -4.335799e+00       4.312527e+00      -9.534784e-03 
      -4.309007e+00       4.315349e+00      -9.534784e-03 
      -4.311001e+00       4.334273e+00       9.534784e-03 
      -4.337793e+00       4.331451e+00       9.534784e-03 
      -3.880268e+00      -1.087379e-02       4.328521e+00 
      -3.853476e+00      -8.050937e-03       4.328521e+00 
      -3.855470e+00       1.087318e-02       4.347590e+00 
      -3.882262e+00       8.050337e-03       4.347590e+00 
      -4.321990e+00       4.310019e+00      -1.348422e-02 
      -4.304456e+00       4.325396e+00       0.000000e+00 
      -4.324810e+00       4.336781e+00       1.348422e-02 
      -4.342344e+00       4.321404e+00       0.000000e+00 
      -3.866459e+00      -1.338168e-02       4.324571e+00 
      -3.848925e+00       1.995754e-03       4.338056e+00 
      -3.869279e+00       1.338107e-02       4.351540e+00 
      -3.886813e+00      -1.996355e-03       4.338056e+00 
      -4.108033e+00       2.150826e+00       2.159493e+00 
      -4.081242e+00       2.153649e+00       2.159493e+00 
      -4.083236e+00       2.172573e+00       2.178563e+00 
      -4.110027e+00       2.169750e+00       2.178563e+00 
       4.309007e+00       4.315349e+00      -9.534784e-03 
       4.335799e+00       4.312527e+00      -9.534784e-03 
       4.337793e+00       4.331451e+00       9.534784e-03 
       4.311001e+00       4.334273e+00       9.534784e-03 
       3.853476e+00      -8.050935e-03       4.328521e+00 
       3.880267e+00      -1.087379e-02       4.328521e+00 
       3.882261e+00       8.050335e-03       4.347590e+00 
       3.855470e+00       1.087319e-02       4.347590e+00 
       4.321990e+00       4.310019e+00      -1.348422e-02 
       4.342344e+00       4.321404e+00       0.000000e+00 
       4.324810e+00       4.336781e+00       1.348422e-02 
       4.304456e+00       4.325396e+00       0.000000e+00 
       3.866459e+00      -1.338167e-02       4.324571e+00 
       3.886813e+00      -1.996358e-03       4.338056e+00 
       3.869278e+00       1.338107e-02       4.351540e+00 
       3.848924e+00       1.995757e-03       4.338056e+00 
       4.081242e+00       2.153649e+00       2.159493e+00 
       4.108033e+00       2.150826e+00       2.159493e+00 
       4.110027e+00       2.169750e+00       2.178563e+00 
       4.083236e+00       2.172573e+00       2.178563e+00 
      -4.309007e+00      -4.315349e+00      -9.534783e-03 
      -4.335799e+00      -4.312527e+00      -9.534783e-03 
      -4.337793e+00      -4.331451e+00       9.534783e-03 
      -4.311001e+00      -4.334273e+00       9.534783e-03 
      -3.853476e+00       8.050337e-03       4.328521e+00 
      -3.880268e+00       1.087319e-02       4.328521e+00 
      -3.882262e+00      -8.050938e-03       4.347590e+00 
      -3.855470e+00      -1.087379e-02       4.347590e+00 
      -4.321990e+00      -4.310019e+00      -1.348422e-02 
      -4.342344e+00      -4.321404e+00       0.000000e+00 
      -4.324810e+00      -4.336781e+00       1.348422e-02 
      -4.304456e+00      -4.325396e+00       0.000000e+00 
      -3.866459e+00       1.338108e-02       4.324571e+00 
      -3.886813e+00       1.995755e-03       4.338056e+00 
      -3.869279e+00      -1.338168e-02       4.351540e+00 
      -3.848925e+00      -1.996355e-03       4.338056e+00 
      -4.081242e+00      -2.153650e+00       2.159493e+00 
      -4.108033e+00      -2.150827e+00       2.159493e+00 
      -4.110027e+00      -2.169751e+00       2.178563e+00 
      -4.083236e+00      -2.172574e+00       2.178563e+00 
      -4.315349e+00       4.309007e+00      -9.534784e-03 
      -4.312527e+00       4.335799e+00      -9.534784e-03 
      -4.331451e+00       4.337793e+00       9.534784e-03 
      -4.334273e+00       4.311001e+00       9.534784e-03 
       8.050334e-03       3.853476e+00       4.328521e+00 
       1.087319e-02       3.880267e+00       4.328521e+00 
      -8.050936e-03       3.882261e+00       4.347590e+00 
      -1.087379e-02       3.855470e+00       4.347590e+00 
      -4.310019e+00       4.321990e+00      -1.348422e-02 
      -4.321404e+00       4.342344e+00       0.000000e+00 
      -4.336781e+00       4.324810e+00       1.348422e-02 
      -4.325396e+00       4.304456e+00       0.000000e+00 
       1.338107e-02       3.866459e+00       4.324571e+00 
       1.995757e-03       3.886813e+00       4.338056e+00 
      -1.338168e-02       3.869278e+00       4.351540e+00 
      -1.996359e-03       3.848924e+00       4.338056e+00 
      -2.153650e+00       4.081242e+00       2.159493e+00 
      -2.150827e+00       4.108033e+00       2.159493e+00 
      -2.169751e+00       4.110027e+00       2.178563e+00 
      -2.172574e+00       4.083236e+00       2.178563e+00 
      -4.312527e+00      -4.335799e+00      -9.534783e-03 
      -4.315349e+00      -4.309007e+00      -9.534783e-03 
      -4.334273e+00      -4.311001e+00       9.534783e-03 
      -4.331451e+00      -4.337793e+00       9.534783e-03 
       1.087318e-02      -3.880268e+00       4.328521e+00 
       8.050337e-03      -3.853476e+00       4.328521e+00 
      -1.087379e-02      -3.855470e+00       4.347590e+00 
      -8.050938e-03      -3.882262e+00       4.347590e+00 
      -4.310019e+00      -4.321990e+00      -1.348422e-02 
      -4.325396e+00      -4.304456e+00       0.000000e+00 
      -4.336781e+00      -4.324810e+00       1.348422e-02 
      -4.321404e+00      -4.342344e+00       0.000000e+00 
       1.338107e-02      -3.866459e+00       4.324571e+00 
      -1.996356e-03      -3.848925e+00       4.338056e+00 
      -1.338168e-02      -3.869279e+00       4.351540e+00 
       1.995754e-03      -3.886813e+00       4.338056e+00 
      -2.150827e+00      -4.108033e+00       2.159493e+00 
      -2.153650e+00      -4.081242e+00       2.159493e+00 
      -2.172574e+00      -4.083236e+00       2.178563e+00 
      -2.169751e+00      -4.110027e+00       2.178563e+00 
       4.312527e+00       4.335799e+00      -9.534784e-03 
       4.315349e+00       4.309007e+00      -9.534784e-03 
       4.334273e+00       4.311001e+00       9.534784e-03 
       4.331451e+00       4.337793e+00       9.534784e-03 
      -1.087379e-02       3.880267e+00       4.328521e+00 
      -8.050936e-03       3.853476e+00       4.328521e+00 
       1.087319e-02       3.855470e+00       4.347590e+00 
       8.050334e-03       3.882261e+00       4.347590e+00 
       4.310019e+00       4.321990e+00      -1.348422e-02 
       4.325396e+00       4.304456e+00       0.000000e+00 
       4.336781e+00       4.324810e+00       1.348422e-02 
       4.321404e+00       4.342344e+00       0.000000e+00 
      -1.338168e-02       3.866459e+00       4.324571e+00 
       1.995757e-03       3.848924e+00       4.338056e+00 
       1.338107e-02       3.869278e+00       4.351540e+00 
      -1.996358e-03       3.886813e+00       4.338056e+00 
       2.150826e+00       4.108033e+00       2.159493e+00 
       2.153649e+00       4.081242e+00       2.159493e+00 
       2.172573e+00       4.083236e+00       2.178563e+00 
       2.169750e+00       4.110027e+00       2.178563e+00 
       4.335799e+00      -4.312527e+00      -9.534784e-03 
       4.309007e+00      -4.315349e+00      -9.534784e-03 
       4.311001e+00      -4.334273e+00       9.534784e-03 
       4.337793e+00      -4.331451e+00       9.534784e-03 
       3.880267e+00       1.087319e-02       4.328521e+00 
       3.853476e+00       8.050335e-03       4.328521e+00 
       3.855470e+00      -1.087379e-02       4.347590e+00 
       3.882261e+00      -8.050936e-03       4.347590e+00 
       4.321990e+00      -4.310019e+00      -1.348422e-02 
       4.304456e+00      -4.325396e+00       0.000000e+00 
       4.324810e+00      -4.336781e+00       1.348422e-02 
       4.342344e+00      -4.321404e+00       0.000000e+00 
       3.866459e+00       1.338108e-02       4.324571e+00 
       3.848924e+00      -1.996358e-03       4.338056e+00 
       3.869278e+00      -1.338168e-02       4.351540e+00 
       3.886813e+00       1.995757e-03       4.338056e+00 
       4.108033e+00      -2.150827e+00       2.159493e+00 
       4.081242e+00      -2.153650e+00       2.159493e+00 
       4.083236e+00      -2.172574e+00       2.178563e+00 
       4.110027e+00      -2.169751e+00       2.178563e+00 
       4.315349e+00      -4.309007e+00      -9.534784e-03 
       4.312527e+00      -4.335799e+00      -9.534784e-03 
       4.331451e+00      -4.337793e+00       9.534784e-03 
       4.334273e+00      -4.311001e+00       9.534784e-03 
      -8.050938e-03      -3.853476e+00       4.328521e+00 
      -1.087379e-02      -3.880268e+00       4.328521e+00 
       8.050336e-03      -3.882262e+00       4.347590e+00 
       1.087318e-02      -3.855470e+00       4.347590e+00 
       4.310019e+00      -4.321990e+00      -1.348422e-02 
       4.321404e+00      -4.342344e+00       0.000000e+00 
       4.336781e+00      -4.324810e+00       1.348422e-02 
       4.325396e+00      -4.304456e+00       0.000000e+00 
      -1.338168e-02      -3.866459e+00       4.324571e+00 
      -1.996356e-03      -3.886813e+00       4.338056e+00 
       1.338107e-02      -3.869279e+00       4.351540e+00 
       1.995754e-03      -3.848925e+00       4.338056e+00 
       2.153649e+00      -4.081242e+00       2.159493e+00 
       2.150826e+00      -4.108033e+00       2.159493e+00 
       2.169750e+00      -4.110027e+00       2.178563e+00 
       2.172573e+00      -4.083236e+00       2.178563e+00 
      -4.290298e+00      -4.323581e+00      -3.458622e-03 
      -4.323581e+00      -4.290298e+00      -3.458622e-03 
      -4.356502e+00      -4.323219e+00       3.458622e-03 
      -4.323219e+00      -4.356502e+00       3.458622e-03 
      -3.835113e+00      -3.868397e+00       4.329231e+00 
      -3.868396e+00      -3.835115e+00       4.329231e+00 
      -3.901317e+00      -3.868036e+00       4.336148e+00 
[...]
POINT_DATA     13260 
VECTORS Displacements float
       0.00000000e+00       0.00000000e+00       0.00000000e+00 
       0.00000000e+00       0.00000000e+00       0.00000000e+00 
       0.00000000e+00       0.00000000e+00       0.00000000e+00 
       0.00000000e+00       0.00000000e+00       0.00000000e+00 
       3.08677783e-05      -3.00292023e-07      -1.14442561e-03 
       3.08677783e-05      -3.00292023e-07      -1.14442561e-03 
       3.08677783e-05      -3.00292023e-07      -1.14442561e-03 
       3.08677783e-05      -3.00292023e-07      -1.14442561e-03 
       0.00000000e+00       0.00000000e+00       0.00000000e+00 
       0.00000000e+00       0.00000000e+00       0.00000000e+00 
       0.00000000e+00       0.00000000e+00       0.00000000e+00 
       0.00000000e+00       0.00000000e+00       0.00000000e+00 
       3.08677783e-05      -3.00292023e-07      -1.14442561e-03 
       3.08677783e-05      -3.00292023e-07      -1.14442561e-03 
       3.08677783e-05      -3.00292023e-07      -1.14442561e-03 
       3.08677783e-05      -3.00292023e-07      -1.14442561e-03 
       1.54338891e-05      -1.50146012e-07      -5.72212807e-04 
       1.54338891e-05      -1.50146012e-07      -5.72212807e-04 
       1.54338891e-05      -1.50146012e-07      -5.72212807e-04 
       1.54338891e-05      -1.50146012e-07      -5.72212807e-04 
       0.00000000e+00       0.00000000e+00       0.00000000e+00 
       0.00000000e+00       0.00000000e+00       0.00000000e+00 
       0.00000000e+00       0.00000000e+00       0.00000000e+00 
       0.00000000e+00       0.00000000e+00       0.00000000e+00 
      -3.14696843e-05      -3.00290592e-07      -1.14448914e-03 
      -3.14696843e-05      -3.00290592e-07      -1.14448914e-03 
      -3.14696843e-05      -3.00290592e-07      -1.14448914e-03 
      -3.14696843e-05      -3.00290592e-07      -1.14448914e-03 
       0.00000000e+00       0.00000000e+00       0.00000000e+00 
       0.00000000e+00       0.00000000e+00       0.00000000e+00 
       0.00000000e+00       0.00000000e+00       0.00000000e+00 
       0.00000000e+00       0.00000000e+00       0.00000000e+00 
      -3.14696843e-05      -3.00290592e-07      -1.14448914e-03 
      -3.14696843e-05      -3.00290592e-07      -1.14448914e-03 
      -3.14696843e-05      -3.00290592e-07      -1.14448914e-03 
      -3.14696843e-05      -3.00290592e-07      -1.14448914e-03 
      -1.57348421e-05      -1.50145296e-07      -5.72244572e-04 
      -1.57348421e-05      -1.50145296e-07      -5.72244572e-04 
      -1.57348421e-05      -1.50145296e-07      -5.72244572e-04 
      -1.57348421e-05      -1.50145296e-07      -5.72244572e-04 
       0.00000000e+00       0.00000000e+00       0.00000000e+00 
       0.00000000e+00       0.00000000e+00       0.00000000e+00 
       0.00000000e+00       0.00000000e+00       0.00000000e+00 
       0.00000000e+00       0.00000000e+00       0.00000000e+00 
       3.08677783e-05      -3.00292023e-07      -1.14442561e-03 
       3.08677783e-05      -3.00292023e-07      -1.14442561e-03 
       3.08677783e-05      -3.00292023e-07      -1.14442561e-03 
       3.08677783e-05      -3.00292023e-07      -1.14442561e-03 
       0.00000000e+00       0.00000000e+00       0.00000000e+00 
       0.00000000e+00       0.00000000e+00       0.00000000e+00 
       0.00000000e+00       0.00000000e+00       0.00000000e+00 
       0.00000000e+00       0.00000000e+00       0.00000000e+00 
       3.08677783e-05      -3.00292023e-07      -1.14442561e-03 
       3.08677783e-05      -3.00292023e-07      -1.14442561e-03 
       3.08677783e-05      -3.00292023e-07      -1.14442561e-03 
       3.08677783e-05      -3.00292023e-07      -1.14442561e-03 
       1.54338891e-05      -1.50146012e-07      -5.72212807e-04 
       1.54338891e-05      -1.50146012e-07      -5.72212807e-04 
       1.54338891e-05      -1.50146012e-07      -5.72212807e-04 
       1.54338891e-05      -1.50146012e-07      -5.72212807e-04 
       0.00000000e+00       0.00000000e+00       0.00000000e+00 
       0.00000000e+00       0.00000000e+00       0.00000000e+00 
       0.00000000e+00       0.00000000e+00       0.00000000e+00 
       0.00000000e+00       0.00000000e+00       0.00000000e+00 
      -3.00848314e-07      -3.14687081e-05      -1.14448238e-03 
      -3.00848314e-07      -3.14687081e-05      -1.14448238e-03 
      -3.00848314e-07      -3.14687081e-05      -1.14448238e-03 
      -3.00848314e-07      -3.14687081e-05      -1.14448238e-03 
       0.00000000e+00       0.00000000e+00       0.00000000e+00 
       0.00000000e+00       0.00000000e+00       0.00000000e+00 
       0.00000000e+00       0.00000000e+00       0.00000000e+00 
       0.00000000e+00       0.00000000e+00       0.00000000e+00 
      -3.00848314e-07      -3.14687081e-05      -1.14448238e-03 
      -3.00848314e-07      -3.14687081e-05      -1.14448238e-03 
      -3.00848314e-07      -3.14687081e-05      -1.14448238e-03 
      -3.00848314e-07      -3.14687081e-05      -1.14448238e-03 
      -1.50424157e-07      -1.57343541e-05      -5.72241191e-04 
      -1.50424157e-07      -1.57343541e-05      -5.72241191e-04 
      -1.50424157e-07      -1.57343541e-05      -5.72241191e-04 
      -1.50424157e-07      -1.57343541e-05      -5.72241191e-04 
       0.00000000e+00       0.00000000e+00       0.00000000e+00 
       0.00000000e+00       0.00000000e+00       0.00000000e+00 
       0.00000000e+00       0.00000000e+00       0.00000000e+00 
       0.00000000e+00       0.00000000e+00       0.00000000e+00 
      -3.00849743e-07       3.08679185e-05      -1.14441897e-03 
      -3.00849743e-07       3.08679185e-05      -1.14441897e-03 
      -3.00849743e-07       3.08679185e-05      -1.14441897e-03 
      -3.00849743e-07       3.08679185e-05      -1.14441897e-03 
       0.00000000e+00       0.00000000e+00       0.00000000e+00 
       0.00000000e+00       0.00000000e+00       0.00000000e+00 
       0.00000000e+00       0.00000000e+00       0.00000000e+00 
       0.00000000e+00       0.00000000e+00       0.00000000e+00 
      -3.00849743e-07       3.08679185e-05      -1.14441897e-03 
      -3.00849743e-07       3.08679185e-05      -1.14441897e-03 
      -3.00849743e-07       3.08679185e-05      -1.14441897e-03 
      -3.00849743e-07       3.08679185e-05      -1.14441897e-03 
      -1.50424872e-07       1.54339592e-05      -5.72209487e-04 
      -1.50424872e-07       1.54339592e-05      -5.72209487e-04 
      -1.50424872e-07       1.54339592e-05      -5.72209487e-04 
      -1.50424872e-07       1.54339592e-05      -5.72209487e-04 
       0.00000000e+00       0.00000000e+00       0.00000000e+00 
       0.00000000e+00       0.00000000e+00       0.00000000e+00 
       0.00000000e+00       0.00000000e+00       0.00000000e+00 
       0.00000000e+00       0.00000000e+00       0.00000000e+00 
      -3.00848314e-07      -3.14687081e-05      -1.14448238e-03 
      -3.00848314e-07      -3.14687081e-05      -1.14448238e-03 
      -3.00848314e-07      -3.14687081e-05      -1.14448238e-03 
      -3.00848314e-07      -3.14687081e-05      -1.14448238e-03 
       0.00000000e+00       0.00000000e+00       0.00000000e+00 
       0.00000000e+00       0.00000000e+00       0.00000000e+00 
       0.00000000e+00       0.00000000e+00       0.00000000e+00 
       0.00000000e+00       0.00000000e+00       0.00000000e+00 
      -3.00848314e-07      -3.14687081e-05      -1.14448238e-03 
      -3.00848314e-07      -3.14687081e-05      -1.14448238e-03 
      -3.00848314e-07      -3.14687081e-05      -1.14448238e-03 
      -3.00848314e-07      -3.14687081e-05      -1.14448238e-03 
      -1.50424157e-07      -1.57343541e-05      -5.72241191e-04 
      -1.50424157e-07      -1.57343541e-05      -5.72241191e-04 
      -1.50424157e-07      -1.57343541e-05      -5.72241191e-04 
      -1.50424157e-07      -1.57343541e-05      -5.72241191e-04 
       0.00000000e+00       0.00000000e+00       0.00000000e+00 
       0.00000000e+00       0.00000000e+00       0.00000000e+00 
       0.00000000e+00       0.00000000e+00       0.00000000e+00 
       0.00000000e+00       0.00000000e+00       0.00000000e+00 
      -3.14696843e-05      -3.00290592e-07      -1.14448914e-03 
      -3.14696843e-05      -3.00290592e-07      -1.14448914e-03 
      -3.14696843e-05      -3.00290592e-07      -1.14448914e-03 
      -3.14696843e-05      -3.00290592e-07      -1.14448914e-03 
       0.00000000e+00       0.00000000e+00       0.00000000e+00 
       0.00000000e+00       0.00000000e+00       0.00000000e+00 
       0.00000000e+00       0.00000000e+00       0.00000000e+00 
       0.00000000e+00       0.00000000e+00       0.00000000e+00 
      -3.14696843e-05      -3.00290592e-07      -1.14448914e-03 
      -3.14696843e-05      -3.00290592e-07      -1.14448914e-03 
      -3.14696843e-05      -3.00290592e-07      -1.14448914e-03 
      -3.14696843e-05      -3.00290592e-07      -1.14448914e-03 
      -1.57348421e-05      -1.50145296e-07      -5.72244572e-04 
      -1.57348421e-05      -1.50145296e-07      -5.72244572e-04 
      -1.57348421e-05      -1.50145296e-07      -5.72244572e-04 
      -1.57348421e-05      -1.50145296e-07      -5.72244572e-04 
       0.00000000e+00       0.00000000e+00       0.00000000e+00 
       0.00000000e+00       0.00000000e+00       0.00000000e+00 
       0.00000000e+00       0.00000000e+00       0.00000000e+00 
       0.00000000e+00       0.00000000e+00       0.00000000e+00 
      -3.00849743e-07       3.08679185e-05      -1.14441897e-03 
      -3.00849743e-07       3.08679185e-05      -1.14441897e-03 
      -3.00849743e-07       3.08679185e-05      -1.14441897e-03 
      -3.00849743e-07       3.08679185e-05      -1.14441897e-03 
       0.00000000e+00       0.00000000e+00       0.00000000e+00 
       0.00000000e+00       0.00000000e+00       0.00000000e+00 
       0.00000000e+00       0.00000000e+00       0.00000000e+00 
       0.00000000e+00       0.00000000e+00       0.00000000e+00 
      -3.00849743e-07       3.08679185e-05      -1.14441897e-03 
      -3.00849743e-07       3.08679185e-05      -1.14441897e-03 
      -3.00849743e-07       3.08679185e-05      -1.14441897e-03 
      -3.00849743e-07       3.08679185e-05      -1.14441897e-03 
      -1.50424872e-07       1.54339592e-05      -5.72209487e-04 
      -1.50424872e-07       1.54339592e-05      -5.72209487e-04 
      -1.50424872e-07       1.54339592e-05      -5.72209487e-04 
      -1.50424872e-07       1.54339592e-05      -5.72209487e-04 
       0.00000000e+00       0.00000000e+00       0.00000000e+00 
       0.00000000e+00       0.00000000e+00       0.00000000e+00 
       0.00000000e+00       0.00000000e+00       0.00000000e+00 
       0.00000000e+00       0.00000000e+00       0.00000000e+00 
      -3.14928265e-04      -3.16434985e-04      -6.51013007e-03 
      -3.14928265e-04      -3.16434985e-04      -6.51013007e-03 
      -3.14928265e-04      -3.16434985e-04      -6.51013007e-03 
      -3.14928265e-04      -3.16434985e-04      -6.51013007e-03 
       0.00000000e+00       0.00000000e+00       0.00000000e+00 
       0.00000000e+00       0.00000000e+00       0.00000000e+00 
       0.00000000e+00       0.00000000e+00       0.00000000e+00 
       0.00000000e+00       0.00000000e+00       0.00000000e+00 
      -3.14928265e-04      -3.16434985e-04      -6.51013007e-03 
      -3.14928265e-04      -3.16434985e-04      -6.51013007e-03 
      -3.14928265e-04      -3.16434985e-04      -6.51013007e-03 
      -3.14928265e-04      -3.16434985e-04      -6.51013007e-03 
      -1.57464132e-04      -1.58217492e-04      -3.25506503e-03 
      -1.57464132e-04      -1.58217492e-04      -3.25506503e-03 
      -1.57464132e-04      -1.58217492e-04      -3.25506503e-03 
      -1.57464132e-04      -1.58217492e-04      -3.25506503e-03 
       0.00000000e+00       0.00000000e+00       0.00000000e+00 
       0.00000000e+00       0.00000000e+00       0.00000000e+00 
       0.00000000e+00       0.00000000e+00       0.00000000e+00 
       0.00000000e+00       0.00000000e+00       0.00000000e+00 
       3.14137856e-04      -3.16462988e-04      -6.51087613e-03 
       3.14137856e-04      -3.16462988e-04      -6.51087613e-03 
       3.14137856e-04      -3.16462988e-04      -6.51087613e-03 
       3.14137856e-04      -3.16462988e-04      -6.51087613e-03 
       0.00000000e+00       0.00000000e+00       0.00000000e+00 
       0.00000000e+00       0.00000000e+00       0.00000000e+00 
       0.00000000e+00       0.00000000e+00       0.00000000e+00 
       0.00000000e+00       0.00000000e+00       0.00000000e+00 
       3.14137856e-04      -3.16462988e-04      -6.51087613e-03 
       3.14137856e-04      -3.16462988e-04      -6.51087613e-03 
       3.14137856e-04      -3.16462988e-04      -6.51087613e-03 
       3.14137856e-04      -3.16462988e-04      -6.51087613e-03 
       1.57068928e-04      -1.58231494e-04      -3.25543807e-03 
       1.57068928e-04      -1.58231494e-04      -3.25543807e-03 
       1.57068928e-04      -1.58231494e-04      -3.25543807e-03 
       1.57068928e-04      -1.58231494e-04      -3.25543807e-03 
       0.00000000e+00       0.00000000e+00       0.00000000e+00 
       0.00000000e+00       0.00000000e+00       0.00000000e+00 
       0.00000000e+00       0.00000000e+00       0.00000000e+00 
       0.00000000e+00       0.00000000e+00       0.00000000e+00 
       3.14164850e-04       3.15674049e-04      -6.51162092e-03 
       3.14164850e-04       3.15674049e-04      -6.51162092e-03 
       3.14164850e-04       3.15674049e-04      -6.51162092e-03 
       3.14164850e-04       3.15674049e-04      -6.51162092e-03 
       0.00000000e+00       0.00000000e+00       0.00000000e+00 
       0.00000000e+00       0.00000000e+00       0.00000000e+00 
       0.00000000e+00       0.00000000e+00       0.00000000e+00 
       0.00000000e+00       0.00000000e+00       0.00000000e+00 
       3.14164850e-04       3.15674049e-04      -6.51162092e-03 
       3.14164850e-04       3.15674049e-04      -6.51162092e-03 
       3.14164850e-04       3.15674049e-04      -6.51162092e-03 
       3.14164850e-04       3.15674049e-04      -6.51162092e-03 
       1.57082425e-04       1.57837025e-04      -3.25581046e-03 
       1.57082425e-04       1.57837025e-04      -3.25581046e-03 
       1.57082425e-04       1.57837025e-04      -3.25581046e-03 
       1.57082425e-04       1.57837025e-04      -3.25581046e-03 
       0.00000000e+00       0.00000000e+00       0.00000000e+00 
       0.00000000e+00       0.00000000e+00       0.00000000e+00 
       0.00000000e+00       0.00000000e+00       0.00000000e+00 
       0.00000000e+00       0.00000000e+00       0.00000000e+00 
      -3.14955254e-04       3.15646041e-04      -6.51087485e-03 
      -3.14955254e-04       3.15646041e-04      -6.51087485e-03 
      -3.14955254e-04       3.15646041e-04      -6.51087485e-03 
      -3.14955254e-04       3.15646041e-04      -6.51087485e-03 
       0.00000000e+00       0.00000000e+00       0.00000000e+00 
       0.00000000e+00       0.00000000e+00       0.00000000e+00 
       0.00000000e+00       0.00000000e+00       0.00000000e+00 
       0.00000000e+00       0.00000000e+00       0.00000000e+00 
      -3.14955254e-04       3.15646041e-04      -6.51087485e-03 
      -3.14955254e-04       3.15646041e-04      -6.51087485e-03 
      -3.14955254e-04       3.15646041e-04      -6.51087485e-03 
      -3.14955254e-04       3.15646041e-04      -6.51087485e-03 
      -1.57477627e-04       1.57823020e-04      -3.25543743e-03 
      -1.57477627e-04       1.57823020e-04      -3.25543743e-03 
      -1.57477627e-04       1.57823020e-04      -3.25543743e-03 
      -1.57477627e-04       1.57823020e-04      -3.25543743e-03 
       3.08677783e-05      -3.00292023e-07      -1.14442561e-03 
       3.08677783e-05      -3.00292023e-07      -1.14442561e-03 
       3.08677783e-05      -3.00292023e-07      -1.14442561e-03 
       3.08677783e-05      -3.00292023e-07      -1.14442561e-03 
      -3.14955254e-04       3.15646041e-04      -6.51087485e-03 
      -3.14955254e-04       3.15646041e-04      -6.51087485e-03 
      -3.14955254e-04       3.15646041e-04      -6.51087485e-03 
      -3.14955254e-04       3.15646041e-04      -6.51087485e-03 
       3.08677783e-05      -3.00292023e-07      -1.14442561e-03 
       3.08677783e-05      -3.00292023e-07      -1.14442561e-03 
       3.08677783e-05      -3.00292023e-07      -1.14442561e-03 
       3.08677783e-05      -3.00292023e-07      -1.14442561e-03 
      -3.14955254e-04       3.15646041e-04      -6.51087485e-03 
      -3.14955254e-04       3.15646041e-04      -6.51087485e-03 
      -3.14955254e-04       3.15646041e-04      -6.51087485e-03 
      -3.14955254e-04       3.15646041e-04      -6.51087485e-03 
      -1.42043738e-04       1.57672874e-04      -3.82765023e-03 
      -1.42043738e-04       1.57672874e-04      -3.82765023e-03 
      -1.42043738e-04       1.57672874e-04      -3.82765023e-03 
      -1.42043738e-04       1.57672874e-04      -3.82765023e-03 
       3.08677783e-05      -3.00292023e-07      -1.14442561e-03 
       3.08677783e-05      -3.00292023e-07      -1.14442561e-03 
       3.08677783e-05      -3.00292023e-07      -1.14442561e-03 
       3.08677783e-05      -3.00292023e-07      -1.14442561e-03 
      -3.14928265e-04      -3.16434985e-04      -6.51013007e-03 
      -3.14928265e-04      -3.16434985e-04      -6.51013007e-03 
      -3.14928265e-04      -3.16434985e-04      -6.51013007e-03 
      -3.14928265e-04      -3.16434985e-04      -6.51013007e-03 
       3.08677783e-05      -3.00292023e-07      -1.14442561e-03 
       3.08677783e-05      -3.00292023e-07      -1.14442561e-03 
       3.08677783e-05      -3.00292023e-07      -1.14442561e-03 
       3.08677783e-05      -3.00292023e-07      -1.14442561e-03 
      -3.14928265e-04      -3.16434985e-04      -6.51013007e-03 
      -3.14928265e-04      -3.16434985e-04      -6.51013007e-03 
      -3.14928265e-04      -3.16434985e-04      -6.51013007e-03 
      -3.14928265e-04      -3.16434985e-04      -6.51013007e-03 
      -1.42030243e-04      -1.58367638e-04      -3.82727784e-03 
      -1.42030243e-04      -1.58367638e-04      -3.82727784e-03 
      -1.42030243e-04      -1.58367638e-04      -3.82727784e-03 
      -1.42030243e-04      -1.58367638e-04      -3.82727784e-03 
      -3.14696843e-05      -3.00290592e-07      -1.14448914e-03 
      -3.14696843e-05      -3.00290592e-07      -1.14448914e-03 
      -3.14696843e-05      -3.00290592e-07      -1.14448914e-03 
      -3.14696843e-05      -3.00290592e-07      -1.14448914e-03 
       3.14164850e-04       3.15674049e-04      -6.51162092e-03 
       3.14164850e-04       3.15674049e-04      -6.51162092e-03 
       3.14164850e-04       3.15674049e-04      -6.51162092e-03 
       3.14164850e-04       3.15674049e-04      -6.51162092e-03 
      -3.14696843e-05      -3.00290592e-07      -1.14448914e-03 
      -3.14696843e-05      -3.00290592e-07      -1.14448914e-03 
      -3.14696843e-05      -3.00290592e-07      -1.14448914e-03 
      -3.14696843e-05      -3.00290592e-07      -1.14448914e-03 
       3.14164850e-04       3.15674049e-04      -6.51162092e-03 
       3.14164850e-04       3.15674049e-04      -6.51162092e-03 
       3.14164850e-04       3.15674049e-04      -6.51162092e-03 
       3.14164850e-04       3.15674049e-04      -6.51162092e-03 
       1.41347583e-04       1.57686879e-04      -3.82805503e-03 
       1.41347583e-04       1.57686879e-04      -3.82805503e-03 
       1.41347583e-04       1.57686879e-04      -3.82805503e-03 
       1.41347583e-04       1.57686879e-04      -3.82805503e-03 
      -3.14696843e-05      -3.00290592e-07      -1.14448914e-03 
      -3.14696843e-05      -3.00290592e-07      -1.14448914e-03 
      -3.14696843e-05      -3.00290592e-07      -1.14448914e-03 
      -3.14696843e-05      -3.00290592e-07      -1.14448914e-03 
      -3.00849743e-07       3.08679185e-05      -1.14441897e-03 
      -3.00849743e-07       3.08679185e-05      -1.14441897e-03 