# vtk DataFile Version 2.0
./output/Static_Tower/Static_Tower_0005.vtk
ASCII
DATASET UNSTRUCTURED_GRID

POINTS 13260 float
      -4.335799e+00       4.312526e+00      -9.533997e-03 
      -4.309007e+00       4.315349e+00      -9.533997e-03 
      -4.311001e+00       4.334274e+00       9.533997e-03 
      -4.337793e+00       4.331451e+00       9.533997e-03 
      -3.880287e+00      -1.086634e-02       4.329229e+00 
      -3.853496e+00      -8.043605e-03       4.329229e+00 
      -3.855490e+00       1.088209e-02       4.348297e+00 
      -3.882281e+00       8.059359e-03       4.348297e+00 
      -4.321990e+00       4.310018e+00      -1.348311e-02 
      -4.304456e+00       4.325396e+00       0.000000e+00 
      -4.324810e+00       4.336782e+00       1.348311e-02 
      -4.342344e+00       4.321404e+00       0.000000e+00 
      -3.866478e+00      -1.337461e-02       4.325280e+00 
      -3.848944e+00       2.003853e-03       4.338763e+00 
      -3.869298e+00       1.339037e-02       4.352247e+00 
      -3.886833e+00      -1.988099e-03       4.338763e+00 
      -4.108043e+00       2.150830e+00       2.159848e+00 
      -4.081251e+00       2.153652e+00       2.159848e+00 
      -4.083245e+00       2.172578e+00       2.178916e+00 
      -4.110037e+00       2.169755e+00       2.178916e+00 
       4.309007e+00       4.315349e+00      -9.533997e-03 
       4.335799e+00       4.312526e+00      -9.533997e-03 
       4.337793e+00       4.331451e+00       9.533997e-03 
       4.311001e+00       4.334274e+00       9.533997e-03 
       3.853495e+00      -8.043604e-03       4.329229e+00 
       3.880287e+00      -1.086634e-02       4.329229e+00 
       3.882281e+00       8.059358e-03       4.348297e+00 
       3.855489e+00       1.088210e-02       4.348297e+00 
       4.321990e+00       4.310018e+00      -1.348311e-02 
       4.342344e+00       4.321404e+00       0.000000e+00 
       4.324810e+00       4.336782e+00       1.348311e-02 
       4.304456e+00       4.325396e+00       0.000000e+00 
       3.866478e+00      -1.337461e-02       4.325280e+00 
       3.886832e+00      -1.988100e-03       4.338763e+00 
       3.869298e+00       1.339037e-02       4.352247e+00 
       3.848944e+00       2.003854e-03       4.338763e+00 
       4.081251e+00       2.153652e+00       2.159848e+00 
       4.108043e+00       2.150830e+00       2.159848e+00 
       4.110037e+00       2.169755e+00       2.178916e+00 
       4.083245e+00       2.172578e+00       2.178916e+00 
      -4.309007e+00      -4.315349e+00      -9.534014e-03 
      -4.335799e+00      -4.312526e+00      -9.534014e-03 
      -4.337793e+00      -4.331451e+00       9.534014e-03 
      -4.311001e+00      -4.334274e+00       9.534014e-03 
      -3.853496e+00       8.059347e-03       4.329229e+00 
      -3.880287e+00       1.088207e-02       4.329229e+00 
      -3.882281e+00      -8.043593e-03       4.348297e+00 
      -3.855490e+00      -1.086632e-02       4.348297e+00 
      -4.321990e+00      -4.310018e+00      -1.348313e-02 
      -4.342344e+00      -4.321404e+00       0.000000e+00 
      -4.324810e+00      -4.336782e+00       1.348313e-02 
      -4.304456e+00      -4.325396e+00       0.000000e+00 
      -3.866478e+00       1.339034e-02       4.325280e+00 
      -3.886833e+00       2.003846e-03       4.338763e+00 
      -3.869298e+00      -1.337459e-02       4.352247e+00 
      -3.848944e+00      -1.988092e-03       4.338763e+00 
      -4.081251e+00      -2.153645e+00       2.159848e+00 
      -4.108043e+00      -2.150822e+00       2.159848e+00 
      -4.110037e+00      -2.169748e+00       2.178916e+00 
      -4.083245e+00      -2.172570e+00       2.178916e+00 
      -4.315348e+00       4.309007e+00      -9.534003e-03 
      -4.312526e+00       4.335799e+00      -9.534003e-03 
      -4.331452e+00       4.337793e+00       9.534003e-03 
      -4.334274e+00       4.311001e+00       9.534003e-03 
       8.051401e-03       3.853504e+00       4.329230e+00 
       1.087408e-02       3.880295e+00       4.329230e+00 
      -8.051607e-03       3.882289e+00       4.348298e+00 
      -1.087429e-02       3.855497e+00       4.348298e+00 
      -4.310018e+00       4.321990e+00      -1.348312e-02 
      -4.321404e+00       4.342344e+00       0.000000e+00 
      -4.336782e+00       4.324810e+00       1.348312e-02 
      -4.325396e+00       4.304456e+00       0.000000e+00 
       1.338238e-02       3.866486e+00       4.325281e+00 
       1.995835e-03       3.886841e+00       4.338764e+00 
      -1.338259e-02       3.869306e+00       4.352247e+00 
      -1.996041e-03       3.848952e+00       4.338764e+00 
      -2.153649e+00       4.081255e+00       2.159848e+00 
      -2.150826e+00       4.108047e+00       2.159848e+00 
      -2.169752e+00       4.110041e+00       2.178916e+00 
      -2.172574e+00       4.083249e+00       2.178916e+00 
      -4.312526e+00      -4.335799e+00      -9.534007e-03 
      -4.315349e+00      -4.309007e+00      -9.534007e-03 
      -4.334274e+00      -4.311001e+00       9.534007e-03 
      -4.331451e+00      -4.337793e+00       9.534007e-03 
       1.087413e-02      -3.880279e+00       4.329229e+00 
       8.051344e-03      -3.853487e+00       4.329229e+00 
      -1.087433e-02      -3.855481e+00       4.348297e+00 
      -8.051550e-03      -3.882273e+00       4.348297e+00 
      -4.310018e+00      -4.321990e+00      -1.348312e-02 
      -4.325396e+00      -4.304456e+00       0.000000e+00 
      -4.336782e+00      -4.324810e+00       1.348312e-02 
      -4.321404e+00      -4.342344e+00       0.000000e+00 
       1.338237e-02      -3.866470e+00       4.325279e+00 
      -1.996111e-03      -3.848936e+00       4.338763e+00 
      -1.338258e-02      -3.869290e+00       4.352246e+00 
       1.995905e-03      -3.886824e+00       4.338763e+00 
      -2.150826e+00      -4.108039e+00       2.159847e+00 
      -2.153649e+00      -4.081247e+00       2.159847e+00 
      -2.172574e+00      -4.083241e+00       2.178915e+00 
      -2.169751e+00      -4.110033e+00       2.178915e+00 
       4.312526e+00       4.335799e+00      -9.534004e-03 
       4.315348e+00       4.309007e+00      -9.534004e-03 
       4.334274e+00       4.311001e+00       9.534004e-03 
       4.331452e+00       4.337793e+00       9.534004e-03 
      -1.087429e-02       3.880295e+00       4.329230e+00 
      -8.051607e-03       3.853504e+00       4.329230e+00 
       1.087408e-02       3.855497e+00       4.348298e+00 
       8.051401e-03       3.882289e+00       4.348298e+00 
       4.310018e+00       4.321990e+00      -1.348312e-02 
       4.325396e+00       4.304456e+00       0.000000e+00 
       4.336782e+00       4.324810e+00       1.348312e-02 
       4.321404e+00       4.342344e+00       0.000000e+00 
      -1.338259e-02       3.866486e+00       4.325281e+00 
       1.995834e-03       3.848952e+00       4.338764e+00 
       1.338238e-02       3.869306e+00       4.352247e+00 
      -1.996041e-03       3.886841e+00       4.338764e+00 
       2.150826e+00       4.108047e+00       2.159848e+00 
       2.153648e+00       4.081255e+00       2.159848e+00 
       2.172574e+00       4.083249e+00       2.178916e+00 
       2.169751e+00       4.110041e+00       2.178916e+00 
       4.335799e+00      -4.312526e+00      -9.534014e-03 
       4.309007e+00      -4.315349e+00      -9.534014e-03 
       4.311001e+00      -4.334274e+00       9.534014e-03 
       4.337793e+00      -4.331451e+00       9.534014e-03 
       3.880287e+00       1.088207e-02       4.329229e+00 
       3.853495e+00       8.059346e-03       4.329229e+00 
       3.855489e+00      -1.086632e-02       4.348297e+00 
       3.882281e+00      -8.043592e-03       4.348297e+00 
       4.321990e+00      -4.310018e+00      -1.348313e-02 
       4.304456e+00      -4.325396e+00       0.000000e+00 
       4.324810e+00      -4.336782e+00       1.348313e-02 
       4.342344e+00      -4.321404e+00       0.000000e+00 
       3.866478e+00       1.339034e-02       4.325280e+00 
       3.848944e+00      -1.988092e-03       4.338763e+00 
       3.869298e+00      -1.337459e-02       4.352247e+00 
       3.886832e+00       2.003847e-03       4.338763e+00 
       4.108043e+00      -2.150822e+00       2.159848e+00 
       4.081251e+00      -2.153645e+00       2.159848e+00 
       4.083245e+00      -2.172570e+00       2.178916e+00 
       4.110037e+00      -2.169748e+00       2.178916e+00 
       4.315349e+00      -4.309007e+00      -9.534007e-03 
       4.312526e+00      -4.335799e+00      -9.534007e-03 
       4.331451e+00      -4.337793e+00       9.534007e-03 
       4.334274e+00      -4.311001e+00       9.534007e-03 
      -8.051550e-03      -3.853487e+00       4.329229e+00 
      -1.087433e-02      -3.880279e+00       4.329229e+00 
       8.051344e-03      -3.882273e+00       4.348297e+00 
       1.087413e-02      -3.855481e+00       4.348297e+00 
       4.310018e+00      -4.321990e+00      -1.348312e-02 
       4.321404e+00      -4.342344e+00       0.000000e+00 
       4.336782e+00      -4.324810e+00       1.348312e-02 
       4.325396e+00      -4.304456e+00       0.000000e+00 
      -1.338258e-02      -3.866470e+00       4.325279e+00 
      -1.996111e-03      -3.886824e+00       4.338763e+00 
       1.338237e-02      -3.869290e+00       4.352246e+00 
       1.995905e-03      -3.848936e+00       4.338763e+00 
       2.153649e+00      -4.081247e+00       2.159847e+00 
       2.150826e+00      -4.108039e+00       2.159847e+00 
       2.169751e+00      -4.110033e+00       2.178915e+00 
       2.172574e+00      -4.083241e+00       2.178915e+00 
      -4.290298e+00      -4.323580e+00      -3.456853e-03 
      -4.323581e+00      -4.290298e+00      -3.456853e-03 
      -4.356502e+00      -4.323220e+00       3.456853e-03 
      -4.323219e+00      -4.356502e+00       3.456853e-03 
      -3.834927e+00      -3.868199e+00       4.333328e+00 
      -3.868209e+00      -3.834917e+00       4.333328e+00 
      -3.901131e+00      -3.867839e+00       4.340241e+00 
[...]
POINT_DATA     13260 
VECTORS Displacements float
       0.00000000e+00       0.00000000e+00       0.00000000e+00 
       0.00000000e+00       0.00000000e+00       0.00000000e+00 
       0.00000000e+00       0.00000000e+00       0.00000000e+00 
       0.00000000e+00       0.00000000e+00       0.00000000e+00 
       1.17901369e-05       7.87708413e-06      -4.36532494e-04 
       1.17901369e-05       7.87708413e-06      -4.36532494e-04 
       1.17901369e-05       7.87708413e-06      -4.36532494e-04 
       1.17901369e-05       7.87708413e-06      -4.36532494e-04 
       0.00000000e+00       0.00000000e+00       0.00000000e+00 
       0.00000000e+00       0.00000000e+00       0.00000000e+00 
       0.00000000e+00       0.00000000e+00       0.00000000e+00 
       0.00000000e+00       0.00000000e+00       0.00000000e+00 
       1.17901369e-05       7.87708413e-06      -4.36532494e-04 
       1.17901369e-05       7.87708413e-06      -4.36532494e-04 
       1.17901369e-05       7.87708413e-06      -4.36532494e-04 
       1.17901369e-05       7.87708413e-06      -4.36532494e-04 
       5.89506843e-06       3.93854207e-06      -2.18266247e-04 
       5.89506843e-06       3.93854207e-06      -2.18266247e-04 
       5.89506843e-06       3.93854207e-06      -2.18266247e-04 
       5.89506843e-06       3.93854207e-06      -2.18266247e-04 
       0.00000000e+00       0.00000000e+00       0.00000000e+00 
       0.00000000e+00       0.00000000e+00       0.00000000e+00 
       0.00000000e+00       0.00000000e+00       0.00000000e+00 
       0.00000000e+00       0.00000000e+00       0.00000000e+00 
      -1.19961362e-05       7.87714350e-06      -4.36554168e-04 
      -1.19961362e-05       7.87714350e-06      -4.36554168e-04 
      -1.19961362e-05       7.87714350e-06      -4.36554168e-04 
      -1.19961362e-05       7.87714350e-06      -4.36554168e-04 
       0.00000000e+00       0.00000000e+00       0.00000000e+00 
       0.00000000e+00       0.00000000e+00       0.00000000e+00 
       0.00000000e+00       0.00000000e+00       0.00000000e+00 
       0.00000000e+00       0.00000000e+00       0.00000000e+00 
      -1.19961362e-05       7.87714350e-06      -4.36554168e-04 
      -1.19961362e-05       7.87714350e-06      -4.36554168e-04 
      -1.19961362e-05       7.87714350e-06      -4.36554168e-04 
      -1.19961362e-05       7.87714350e-06      -4.36554168e-04 
      -5.99806809e-06       3.93857175e-06      -2.18277084e-04 
      -5.99806809e-06       3.93857175e-06      -2.18277084e-04 
      -5.99806809e-06       3.93857175e-06      -2.18277084e-04 
      -5.99806809e-06       3.93857175e-06      -2.18277084e-04 
       0.00000000e+00       0.00000000e+00       0.00000000e+00 
       0.00000000e+00       0.00000000e+00       0.00000000e+00 
       0.00000000e+00       0.00000000e+00       0.00000000e+00 
       0.00000000e+00       0.00000000e+00       0.00000000e+00 
       1.17901369e-05       7.87708413e-06      -4.36532494e-04 
       1.17901369e-05       7.87708413e-06      -4.36532494e-04 
       1.17901369e-05       7.87708413e-06      -4.36532494e-04 
       1.17901369e-05       7.87708413e-06      -4.36532494e-04 
       0.00000000e+00       0.00000000e+00       0.00000000e+00 
       0.00000000e+00       0.00000000e+00       0.00000000e+00 
       0.00000000e+00       0.00000000e+00       0.00000000e+00 
       0.00000000e+00       0.00000000e+00       0.00000000e+00 
       1.17901369e-05       7.87708413e-06      -4.36532494e-04 
       1.17901369e-05       7.87708413e-06      -4.36532494e-04 
       1.17901369e-05       7.87708413e-06      -4.36532494e-04 
       1.17901369e-05       7.87708413e-06      -4.36532494e-04 
       5.89506843e-06       3.93854207e-06      -2.18266247e-04 
       5.89506843e-06       3.93854207e-06      -2.18266247e-04 
       5.89506843e-06       3.93854207e-06      -2.18266247e-04 
       5.89506843e-06       3.93854207e-06      -2.18266247e-04 
       0.00000000e+00       0.00000000e+00       0.00000000e+00 
       0.00000000e+00       0.00000000e+00       0.00000000e+00 
       0.00000000e+00       0.00000000e+00       0.00000000e+00 
       0.00000000e+00       0.00000000e+00       0.00000000e+00 
      -1.03018055e-07      -3.78680900e-06      -4.35694793e-04 
      -1.03018055e-07      -3.78680900e-06      -4.35694793e-04 
      -1.03018055e-07      -3.78680900e-06      -4.35694793e-04 
      -1.03018055e-07      -3.78680900e-06      -4.35694793e-04 
       0.00000000e+00       0.00000000e+00       0.00000000e+00 
       0.00000000e+00       0.00000000e+00       0.00000000e+00 
       0.00000000e+00       0.00000000e+00       0.00000000e+00 
       0.00000000e+00       0.00000000e+00       0.00000000e+00 
      -1.03018055e-07      -3.78680900e-06      -4.35694793e-04 
      -1.03018055e-07      -3.78680900e-06      -4.35694793e-04 
      -1.03018055e-07      -3.78680900e-06      -4.35694793e-04 
      -1.03018055e-07      -3.78680900e-06      -4.35694793e-04 
      -5.15090277e-08      -1.89340450e-06      -2.17847397e-04 
      -5.15090277e-08      -1.89340450e-06      -2.17847397e-04 
      -5.15090277e-08      -1.89340450e-06      -2.17847397e-04 
      -5.15090277e-08      -1.89340450e-06      -2.17847397e-04 
       0.00000000e+00       0.00000000e+00       0.00000000e+00 
       0.00000000e+00       0.00000000e+00       0.00000000e+00 
       0.00000000e+00       0.00000000e+00       0.00000000e+00 
       0.00000000e+00       0.00000000e+00       0.00000000e+00 
      -1.02953640e-07       1.99994664e-05      -4.37391929e-04 
      -1.02953640e-07       1.99994664e-05      -4.37391929e-04 
      -1.02953640e-07       1.99994664e-05      -4.37391929e-04 
      -1.02953640e-07       1.99994664e-05      -4.37391929e-04 
       0.00000000e+00       0.00000000e+00       0.00000000e+00 
       0.00000000e+00       0.00000000e+00       0.00000000e+00 
       0.00000000e+00       0.00000000e+00       0.00000000e+00 
       0.00000000e+00       0.00000000e+00       0.00000000e+00 
      -1.02953640e-07       1.99994664e-05      -4.37391929e-04 
      -1.02953640e-07       1.99994664e-05      -4.37391929e-04 
      -1.02953640e-07       1.99994664e-05      -4.37391929e-04 
      -1.02953640e-07       1.99994664e-05      -4.37391929e-04 
      -5.14768200e-08       9.99973320e-06      -2.18695964e-04 
      -5.14768200e-08       9.99973320e-06      -2.18695964e-04 
      -5.14768200e-08       9.99973320e-06      -2.18695964e-04 
      -5.14768200e-08       9.99973320e-06      -2.18695964e-04 
       0.00000000e+00       0.00000000e+00       0.00000000e+00 
       0.00000000e+00       0.00000000e+00       0.00000000e+00 
       0.00000000e+00       0.00000000e+00       0.00000000e+00 
       0.00000000e+00       0.00000000e+00       0.00000000e+00 
      -1.03018055e-07      -3.78680900e-06      -4.35694793e-04 
      -1.03018055e-07      -3.78680900e-06      -4.35694793e-04 
      -1.03018055e-07      -3.78680900e-06      -4.35694793e-04 
      -1.03018055e-07      -3.78680900e-06      -4.35694793e-04 
       0.00000000e+00       0.00000000e+00       0.00000000e+00 
       0.00000000e+00       0.00000000e+00       0.00000000e+00 
       0.00000000e+00       0.00000000e+00       0.00000000e+00 
       0.00000000e+00       0.00000000e+00       0.00000000e+00 
      -1.03018055e-07      -3.78680900e-06      -4.35694793e-04 
      -1.03018055e-07      -3.78680900e-06      -4.35694793e-04 
      -1.03018055e-07      -3.78680900e-06      -4.35694793e-04 
      -1.03018055e-07      -3.78680900e-06      -4.35694793e-04 
      -5.15090277e-08      -1.89340450e-06      -2.17847397e-04 
      -5.15090277e-08      -1.89340450e-06      -2.17847397e-04 
      -5.15090277e-08      -1.89340450e-06      -2.17847397e-04 
      -5.15090277e-08      -1.89340450e-06      -2.17847397e-04 
       0.00000000e+00       0.00000000e+00       0.00000000e+00 
       0.00000000e+00       0.00000000e+00       0.00000000e+00 
       0.00000000e+00       0.00000000e+00       0.00000000e+00 
       0.00000000e+00       0.00000000e+00       0.00000000e+00 
      -1.19961362e-05       7.87714350e-06      -4.36554168e-04 
      -1.19961362e-05       7.87714350e-06      -4.36554168e-04 
      -1.19961362e-05       7.87714350e-06      -4.36554168e-04 
      -1.19961362e-05       7.87714350e-06      -4.36554168e-04 
       0.00000000e+00       0.00000000e+00       0.00000000e+00 
       0.00000000e+00       0.00000000e+00       0.00000000e+00 
       0.00000000e+00       0.00000000e+00       0.00000000e+00 
       0.00000000e+00       0.00000000e+00       0.00000000e+00 
      -1.19961362e-05       7.87714350e-06      -4.36554168e-04 
      -1.19961362e-05       7.87714350e-06      -4.36554168e-04 
      -1.19961362e-05       7.87714350e-06      -4.36554168e-04 
      -1.19961362e-05       7.87714350e-06      -4.36554168e-04 
      -5.99806809e-06       3.93857175e-06      -2.18277084e-04 
      -5.99806809e-06       3.93857175e-06      -2.18277084e-04 
      -5.99806809e-06       3.93857175e-06      -2.18277084e-04 
      -5.99806809e-06       3.93857175e-06      -2.18277084e-04 
       0.00000000e+00       0.00000000e+00       0.00000000e+00 
       0.00000000e+00       0.00000000e+00       0.00000000e+00 
       0.00000000e+00       0.00000000e+00       0.00000000e+00 
       0.00000000e+00       0.00000000e+00       0.00000000e+00 
      -1.02953640e-07       1.99994664e-05      -4.37391929e-04 
      -1.02953640e-07       1.99994664e-05      -4.37391929e-04 
      -1.02953640e-07       1.99994664e-05      -4.37391929e-04 
      -1.02953640e-07       1.99994664e-05      -4.37391929e-04 
       0.00000000e+00       0.00000000e+00       0.00000000e+00 
       0.00000000e+00       0.00000000e+00       0.00000000e+00 
       0.00000000e+00       0.00000000e+00       0.00000000e+00 
       0.00000000e+00       0.00000000e+00       0.00000000e+00 
      -1.02953640e-07       1.99994664e-05      -4.37391929e-04 
      -1.02953640e-07       1.99994664e-05      -4.37391929e-04 
      -1.02953640e-07       1.99994664e-05      -4.37391929e-04 
      -1.02953640e-07       1.99994664e-05      -4.37391929e-04 
      -5.14768200e-08       9.99973320e-06      -2.18695964e-04 
      -5.14768200e-08       9.99973320e-06      -2.18695964e-04 
      -5.14768200e-08       9.99973320e-06      -2.18695964e-04 
      -5.14768200e-08       9.99973320e-06      -2.18695964e-04 
       0.00000000e+00       0.00000000e+00       0.00000000e+00 
       0.00000000e+00       0.00000000e+00       0.00000000e+00 
       0.00000000e+00       0.00000000e+00       0.00000000e+00 
       0.00000000e+00       0.00000000e+00       0.00000000e+00 
      -1.28630754e-04      -1.18671409e-04      -2.41543587e-03 
      -1.28630754e-04      -1.18671409e-04      -2.41543587e-03 
      -1.28630754e-04      -1.18671409e-04      -2.41543587e-03 
      -1.28630754e-04      -1.18671409e-04      -2.41543587e-03 
       0.00000000e+00       0.00000000e+00       0.00000000e+00 
       0.00000000e+00       0.00000000e+00       0.00000000e+00 
       0.00000000e+00       0.00000000e+00       0.00000000e+00 
       0.00000000e+00       0.00000000e+00       0.00000000e+00 
      -1.28630754e-04      -1.18671409e-04      -2.41543587e-03 
      -1.28630754e-04      -1.18671409e-04      -2.41543587e-03 
      -1.28630754e-04      -1.18671409e-04      -2.41543587e-03 
      -1.28630754e-04      -1.18671409e-04      -2.41543587e-03 
      -6.43153772e-05      -5.93357043e-05      -1.20771793e-03 
      -6.43153772e-05      -5.93357043e-05      -1.20771793e-03 
      -6.43153772e-05      -5.93357043e-05      -1.20771793e-03 
      -6.43153772e-05      -5.93357043e-05      -1.20771793e-03 
       0.00000000e+00       0.00000000e+00       0.00000000e+00 
       0.00000000e+00       0.00000000e+00       0.00000000e+00 
       0.00000000e+00       0.00000000e+00       0.00000000e+00 
       0.00000000e+00       0.00000000e+00       0.00000000e+00 
       1.28360484e-04      -1.18682995e-04      -2.41569381e-03 
       1.28360484e-04      -1.18682995e-04      -2.41569381e-03 
       1.28360484e-04      -1.18682995e-04      -2.41569381e-03 
       1.28360484e-04      -1.18682995e-04      -2.41569381e-03 
       0.00000000e+00       0.00000000e+00       0.00000000e+00 
       0.00000000e+00       0.00000000e+00       0.00000000e+00 
       0.00000000e+00       0.00000000e+00       0.00000000e+00 
       0.00000000e+00       0.00000000e+00       0.00000000e+00 
       1.28360484e-04      -1.18682995e-04      -2.41569381e-03 
       1.28360484e-04      -1.18682995e-04      -2.41569381e-03 
       1.28360484e-04      -1.18682995e-04      -2.41569381e-03 
       1.28360484e-04      -1.18682995e-04      -2.41569381e-03 
       6.41802418e-05      -5.93414975e-05      -1.20784691e-03 
       6.41802418e-05      -5.93414975e-05      -1.20784691e-03 
       6.41802418e-05      -5.93414975e-05      -1.20784691e-03 
       6.41802418e-05      -5.93414975e-05      -1.20784691e-03 
       0.00000000e+00       0.00000000e+00       0.00000000e+00 
       0.00000000e+00       0.00000000e+00       0.00000000e+00 
       0.00000000e+00       0.00000000e+00       0.00000000e+00 
       0.00000000e+00       0.00000000e+00       0.00000000e+00 
       1.29106804e-04       1.39010850e-04      -2.45071801e-03 
       1.29106804e-04       1.39010850e-04      -2.45071801e-03 
       1.29106804e-04       1.39010850e-04      -2.45071801e-03 
       1.29106804e-04       1.39010850e-04      -2.45071801e-03 
       0.00000000e+00       0.00000000e+00       0.00000000e+00 
       0.00000000e+00       0.00000000e+00       0.00000000e+00 
       0.00000000e+00       0.00000000e+00       0.00000000e+00 
       0.00000000e+00       0.00000000e+00       0.00000000e+00 
       1.29106804e-04       1.39010850e-04      -2.45071801e-03 
       1.29106804e-04       1.39010850e-04      -2.45071801e-03 
       1.29106804e-04       1.39010850e-04      -2.45071801e-03 
       1.29106804e-04       1.39010850e-04      -2.45071801e-03 
       6.45534021e-05       6.95054252e-05      -1.22535900e-03 
       6.45534021e-05       6.95054252e-05      -1.22535900e-03 
       6.45534021e-05       6.95054252e-05      -1.22535900e-03 
       6.45534021e-05       6.95054252e-05      -1.22535900e-03 
       0.00000000e+00       0.00000000e+00       0.00000000e+00 
       0.00000000e+00       0.00000000e+00       0.00000000e+00 
       0.00000000e+00       0.00000000e+00       0.00000000e+00 
       0.00000000e+00       0.00000000e+00       0.00000000e+00 
      -1.29377250e-04       1.38999114e-04      -2.45046006e-03 
      -1.29377250e-04       1.38999114e-04      -2.45046006e-03 
      -1.29377250e-04       1.38999114e-04      -2.45046006e-03 
      -1.29377250e-04       1.38999114e-04      -2.45046006e-03 
       0.00000000e+00       0.00000000e+00       0.00000000e+00 
       0.00000000e+00       0.00000000e+00       0.00000000e+00 
       0.00000000e+00       0.00000000e+00       0.00000000e+00 
       0.00000000e+00       0.00000000e+00       0.00000000e+00 
      -1.29377250e-04       1.38999114e-04      -2.45046006e-03 
      -1.29377250e-04       1.38999114e-04      -2.45046006e-03 
      -1.29377250e-04       1.38999114e-04      -2.45046006e-03 
      -1.29377250e-04       1.38999114e-04      -2.45046006e-03 
      -6.46886251e-05       6.94995570e-05      -1.22523003e-03 
      -6.46886251e-05       6.94995570e-05      -1.22523003e-03 
      -6.46886251e-05       6.94995570e-05      -1.22523003e-03 
      -6.46886251e-05       6.94995570e-05      -1.22523003e-03 
       1.17901369e-05       7.87708413e-06      -4.36532494e-04 
       1.17901369e-05       7.87708413e-06      -4.36532494e-04 
       1.17901369e-05       7.87708413e-06      -4.36532494e-04 
       1.17901369e-05       7.87708413e-06      -4.36532494e-04 
      -1.29377250e-04       1.38999114e-04      -2.45046006e-03 
      -1.29377250e-04       1.38999114e-04      -2.45046006e-03 
      -1.29377250e-04       1.38999114e-04      -2.45046006e-03 
      -1.29377250e-04       1.38999114e-04      -2.45046006e-03 
       1.17901369e-05       7.87708413e-06      -4.36532494e-04 
       1.17901369e-05       7.87708413e-06      -4.36532494e-04 
       1.17901369e-05       7.87708413e-06      -4.36532494e-04 
       1.17901369e-05       7.87708413e-06      -4.36532494e-04 
      -1.29377250e-04       1.38999114e-04      -2.45046006e-03 
      -1.29377250e-04       1.38999114e-04      -2.45046006e-03 
      -1.29377250e-04       1.38999114e-04      -2.45046006e-03 
      -1.29377250e-04       1.38999114e-04      -2.45046006e-03 
      -5.87935566e-05       7.34380991e-05      -1.44349628e-03 
      -5.87935566e-05       7.34380991e-05      -1.44349628e-03 
      -5.87935566e-05       7.34380991e-05      -1.44349628e-03 
      -5.87935566e-05       7.34380991e-05      -1.44349628e-03 
       1.17901369e-05       7.87708413e-06      -4.36532494e-04 
       1.17901369e-05       7.87708413e-06      -4.36532494e-04 
       1.17901369e-05       7.87708413e-06      -4.36532494e-04 
       1.17901369e-05       7.87708413e-06      -4.36532494e-04 
      -1.28630754e-04      -1.18671409e-04      -2.41543587e-03 
      -1.28630754e-04      -1.18671409e-04      -2.41543587e-03 
      -1.28630754e-04      -1.18671409e-04      -2.41543587e-03 
      -1.28630754e-04      -1.18671409e-04      -2.41543587e-03 
       1.17901369e-05       7.87708413e-06      -4.36532494e-04 
       1.17901369e-05       7.87708413e-06      -4.36532494e-04 
       1.17901369e-05       7.87708413e-06      -4.36532494e-04 
       1.17901369e-05       7.87708413e-06      -4.36532494e-04 
      -1.28630754e-04      -1.18671409e-04      -2.41543587e-03 
      -1.28630754e-04      -1.18671409e-04      -2.41543587e-03 
      -1.28630754e-04      -1.18671409e-04      -2.41543587e-03 
      -1.28630754e-04      -1.18671409e-04      -2.41543587e-03 
      -5.84203088e-05      -5.53971623e-05      -1.42598418e-03 
      -5.84203088e-05      -5.53971623e-05      -1.42598418e-03 
      -5.84203088e-05      -5.53971623e-05      -1.42598418e-03 
      -5.84203088e-05      -5.53971623e-05      -1.42598418e-03 
      -1.19961362e-05       7.87714350e-06      -4.36554168e-04 
      -1.19961362e-05       7.87714350e-06      -4.36554168e-04 
      -1.19961362e-05       7.87714350e-06      -4.36554168e-04 
      -1.19961362e-05       7.87714350e-06      -4.36554168e-04 
       1.29106804e-04       1.39010850e-04      -2.45071801e-03 
       1.29106804e-04       1.39010850e-04      -2.45071801e-03 
       1.29106804e-04       1.39010850e-04      -2.45071801e-03 
       1.29106804e-04       1.39010850e-04      -2.45071801e-03 
      -1.19961362e-05       7.87714350e-06      -4.36554168e-04 
      -1.19961362e-05       7.87714350e-06      -4.36554168e-04 
      -1.19961362e-05       7.87714350e-06      -4.36554168e-04 
      -1.19961362e-05       7.87714350e-06      -4.36554168e-04 
       1.29106804e-04       1.39010850e-04      -2.45071801e-03 
       1.29106804e-04       1.39010850e-04      -2.45071801e-03 
       1.29106804e-04       1.39010850e-04      -2.45071801e-03 
       1.29106804e-04       1.39010850e-04      -2.45071801e-03 
       5.85553340e-05       7.34439970e-05      -1.44363609e-03 
       5.85553340e-05       7.34439970e-05      -1.44363609e-03 
       5.85553340e-05       7.34439970e-05      -1.44363609e-03 
       5.85553340e-05       7.34439970e-05      -1.44363609e-03 
      -1.19961362e-05       7.87714350e-06      -4.36554168e-04 
      -1.19961362e-05       7.87714350e-06      -4.36554168e-04 
      -1.19961362e-05       7.87714350e-06      -4.36554168e-04 
      -1.19961362e-05       7.87714350e-06      -4.36554168e-04 
      -1.02953640e-07       1.99994664e-05      -4.37391929e-04 
      -1.02953640e-07       1.99994664e-05      -4.37391929e-04 