# vtk DataFile Version 2.0
./output/Static_Tower/Static_Tower_0009.vtk
ASCII
DATASET UNSTRUCTURED_GRID

POINTS 13260 float
      -4.335799e+00       4.312527e+00      -9.535131e-03 
      -4.309007e+00       4.315350e+00      -9.535131e-03 
      -4.311001e+00       4.334273e+00       9.535131e-03 
      -4.337793e+00       4.331450e+00       9.535131e-03 
      -3.880259e+00      -1.087357e-02       4.328205e+00 
      -3.853468e+00      -8.050666e-03       4.328205e+00 
      -3.855462e+00       1.087276e-02       4.347276e+00 
      -3.882253e+00       8.049862e-03       4.347276e+00 
      -4.321990e+00       4.310019e+00      -1.348471e-02 
      -4.304456e+00       4.325396e+00       0.000000e+00 
      -4.324810e+00       4.336781e+00       1.348471e-02 
      -4.342344e+00       4.321404e+00       0.000000e+00 
      -3.866451e+00      -1.338129e-02       4.324256e+00 
      -3.848916e+00       1.995690e-03       4.337741e+00 
      -3.869271e+00       1.338048e-02       4.351225e+00 
      -3.886805e+00      -1.996493e-03       4.337741e+00 
      -4.108029e+00       2.150827e+00       2.159335e+00 
      -4.081238e+00       2.153650e+00       2.159335e+00 
      -4.083232e+00       2.172573e+00       2.178405e+00 
      -4.110023e+00       2.169750e+00       2.178405e+00 
       4.309007e+00       4.315350e+00      -9.535131e-03 
       4.335799e+00       4.312527e+00      -9.535131e-03 
       4.337793e+00       4.331450e+00       9.535131e-03 
       4.311001e+00       4.334273e+00       9.535131e-03 
       3.853467e+00      -8.050663e-03       4.328205e+00 
       3.880259e+00      -1.087357e-02       4.328205e+00 
       3.882252e+00       8.049859e-03       4.347276e+00 
       3.855461e+00       1.087276e-02       4.347276e+00 
       4.321990e+00       4.310019e+00      -1.348471e-02 
       4.342344e+00       4.321404e+00       0.000000e+00 
       4.324810e+00       4.336781e+00       1.348471e-02 
       4.304456e+00       4.325396e+00       0.000000e+00 
       3.866450e+00      -1.338128e-02       4.324256e+00 
       3.886804e+00      -1.996497e-03       4.337741e+00 
       3.869270e+00       1.338048e-02       4.351225e+00 
       3.848915e+00       1.995693e-03       4.337741e+00 
       4.081237e+00       2.153650e+00       2.159335e+00 
       4.108029e+00       2.150827e+00       2.159335e+00 
       4.110023e+00       2.169750e+00       2.178405e+00 
       4.083231e+00       2.172573e+00       2.178405e+00 
      -4.309007e+00      -4.315350e+00      -9.535130e-03 
      -4.335799e+00      -4.312527e+00      -9.535130e-03 
      -4.337793e+00      -4.331450e+00       9.535130e-03 
      -4.311001e+00      -4.334273e+00       9.535130e-03 
      -3.853468e+00       8.049863e-03       4.328205e+00 
      -3.880259e+00       1.087276e-02       4.328205e+00 
      -3.882253e+00      -8.050666e-03       4.347276e+00 
      -3.855462e+00      -1.087357e-02       4.347276e+00 
      -4.321990e+00      -4.310019e+00      -1.348471e-02 
      -4.342344e+00      -4.321404e+00       0.000000e+00 
      -4.324810e+00      -4.336781e+00       1.348471e-02 
      -4.304456e+00      -4.325396e+00       0.000000e+00 
      -3.866451e+00       1.338048e-02       4.324256e+00 
      -3.886805e+00       1.995690e-03       4.337741e+00 
      -3.869271e+00      -1.338129e-02       4.351225e+00 
      -3.848916e+00      -1.996494e-03       4.337741e+00 
      -4.081238e+00      -2.153650e+00       2.159335e+00 
      -4.108029e+00      -2.150827e+00       2.159335e+00 
      -4.110023e+00      -2.169750e+00       2.178405e+00 
      -4.083232e+00      -2.172573e+00       2.178405e+00 
      -4.315350e+00       4.309007e+00      -9.535130e-03 
      -4.312527e+00       4.335799e+00      -9.535130e-03 
      -4.331450e+00       4.337793e+00       9.535130e-03 
      -4.334273e+00       4.311001e+00       9.535130e-03 
       8.049859e-03       3.853467e+00       4.328205e+00 
       1.087276e-02       3.880259e+00       4.328205e+00 
      -8.050664e-03       3.882252e+00       4.347276e+00 
      -1.087357e-02       3.855461e+00       4.347276e+00 
      -4.310019e+00       4.321990e+00      -1.348471e-02 
      -4.321404e+00       4.342344e+00       0.000000e+00 
      -4.336781e+00       4.324810e+00       1.348471e-02 
      -4.325396e+00       4.304456e+00       0.000000e+00 
       1.338048e-02       3.866450e+00       4.324256e+00 
       1.995693e-03       3.886804e+00       4.337741e+00 
      -1.338129e-02       3.869270e+00       4.351225e+00 
      -1.996498e-03       3.848915e+00       4.337741e+00 
      -2.153650e+00       4.081237e+00       2.159335e+00 
      -2.150827e+00       4.108029e+00       2.159335e+00 
      -2.169750e+00       4.110023e+00       2.178405e+00 
      -2.172573e+00       4.083231e+00       2.178405e+00 
      -4.312527e+00      -4.335799e+00      -9.535130e-03 
      -4.315350e+00      -4.309007e+00      -9.535130e-03 
      -4.334273e+00      -4.311001e+00       9.535130e-03 
      -4.331450e+00      -4.337793e+00       9.535130e-03 
       1.087276e-02      -3.880259e+00       4.328206e+00 
       8.049862e-03      -3.853468e+00       4.328206e+00 
      -1.087357e-02      -3.855462e+00       4.347276e+00 
      -8.050667e-03      -3.882253e+00       4.347276e+00 
      -4.310019e+00      -4.321990e+00      -1.348471e-02 
      -4.325396e+00      -4.304456e+00       0.000000e+00 
      -4.336781e+00      -4.324810e+00       1.348471e-02 
      -4.321404e+00      -4.342344e+00       0.000000e+00 
       1.338048e-02      -3.866451e+00       4.324256e+00 
      -1.996494e-03      -3.848916e+00       4.337741e+00 
      -1.338129e-02      -3.869271e+00       4.351225e+00 
       1.995689e-03      -3.886805e+00       4.337741e+00 
      -2.150827e+00      -4.108029e+00       2.159335e+00 
      -2.153650e+00      -4.081238e+00       2.159335e+00 
      -2.172573e+00      -4.083232e+00       2.178405e+00 
      -2.169750e+00      -4.110023e+00       2.178405e+00 
       4.312527e+00       4.335799e+00      -9.535131e-03 
       4.315350e+00       4.309007e+00      -9.535131e-03 
       4.334273e+00       4.311001e+00       9.535131e-03 
       4.331450e+00       4.337793e+00       9.535131e-03 
      -1.087357e-02       3.880259e+00       4.328205e+00 
      -8.050664e-03       3.853467e+00       4.328205e+00 
       1.087276e-02       3.855461e+00       4.347276e+00 
       8.049858e-03       3.882252e+00       4.347276e+00 
       4.310019e+00       4.321990e+00      -1.348471e-02 
       4.325396e+00       4.304456e+00       0.000000e+00 
       4.336781e+00       4.324810e+00       1.348471e-02 
       4.321404e+00       4.342344e+00       0.000000e+00 
      -1.338129e-02       3.866450e+00       4.324256e+00 
       1.995692e-03       3.848915e+00       4.337741e+00 
       1.338048e-02       3.869270e+00       4.351225e+00 
      -1.996498e-03       3.886804e+00       4.337741e+00 
       2.150827e+00       4.108029e+00       2.159335e+00 
       2.153650e+00       4.081237e+00       2.159335e+00 
       2.172573e+00       4.083231e+00       2.178405e+00 
       2.169750e+00       4.110023e+00       2.178405e+00 
       4.335799e+00      -4.312527e+00      -9.535130e-03 
       4.309007e+00      -4.315350e+00      -9.535130e-03 
       4.311001e+00      -4.334273e+00       9.535130e-03 
       4.337793e+00      -4.331450e+00       9.535130e-03 
       3.880259e+00       1.087276e-02       4.328205e+00 
       3.853467e+00       8.049860e-03       4.328205e+00 
       3.855461e+00      -1.087357e-02       4.347276e+00 
       3.882252e+00      -8.050663e-03       4.347276e+00 
       4.321990e+00      -4.310019e+00      -1.348471e-02 
       4.304456e+00      -4.325396e+00       0.000000e+00 
       4.324810e+00      -4.336781e+00       1.348471e-02 
       4.342344e+00      -4.321404e+00       0.000000e+00 
       3.866450e+00       1.338048e-02       4.324256e+00 
       3.848915e+00      -1.996497e-03       4.337741e+00 
       3.869270e+00      -1.338129e-02       4.351225e+00 
       3.886804e+00       1.995694e-03       4.337741e+00 
       4.108029e+00      -2.150827e+00       2.159335e+00 
       4.081237e+00      -2.153650e+00       2.159335e+00 
       4.083231e+00      -2.172573e+00       2.178405e+00 
       4.110023e+00      -2.169750e+00       2.178405e+00 
       4.315350e+00      -4.309007e+00      -9.535131e-03 
       4.312527e+00      -4.335799e+00      -9.535131e-03 
       4.331450e+00      -4.337793e+00       9.535131e-03 
       4.334273e+00      -4.311001e+00       9.535131e-03 
      -8.050666e-03      -3.853468e+00       4.328206e+00 
      -1.087357e-02      -3.880259e+00       4.328206e+00 
       8.049861e-03      -3.882253e+00       4.347276e+00 
       1.087276e-02      -3.855462e+00       4.347276e+00 
       4.310019e+00      -4.321990e+00      -1.348471e-02 
       4.321404e+00      -4.342344e+00       0.000000e+00 
       4.336781e+00      -4.324810e+00       1.348471e-02 
       4.325396e+00      -4.304456e+00       0.000000e+00 
      -1.338129e-02      -3.866451e+00       4.324256e+00 
      -1.996494e-03      -3.886805e+00       4.337741e+00 
       1.338048e-02      -3.869271e+00       4.351225e+00 
       1.995689e-03      -3.848916e+00       4.337741e+00 
       2.153650e+00      -4.081238e+00       2.159335e+00 
       2.150827e+00      -4.108029e+00       2.159335e+00 
       2.169750e+00      -4.110023e+00       2.178405e+00 
       2.172573e+00      -4.083232e+00       2.178405e+00 
      -4.290298e+00      -4.323581e+00      -3.459511e-03 
      -4.323581e+00      -4.290298e+00      -3.459511e-03 
      -4.356502e+00      -4.323219e+00       3.459511e-03 
      -4.323219e+00      -4.356502e+00       3.459511e-03 
      -3.835184e+00      -3.868469e+00       4.327416e+00 
      -3.868466e+00      -3.835187e+00       4.327416e+00 
      -3.901387e+00      -3.868107e+00       4.334335e+00 
[...]
POINT_DATA     13260 
VECTORS Displacements float
       0.00000000e+00       0.00000000e+00       0.00000000e+00 
       0.00000000e+00       0.00000000e+00       0.00000000e+00 
       0.00000000e+00       0.00000000e+00       0.00000000e+00 
       0.00000000e+00       0.00000000e+00       0.00000000e+00 
       3.93399318e-05      -4.01755910e-07      -1.45938036e-03 
       3.93399318e-05      -4.01755910e-07      -1.45938036e-03 
       3.93399318e-05      -4.01755910e-07      -1.45938036e-03 
       3.93399318e-05      -4.01755910e-07      -1.45938036e-03 
       0.00000000e+00       0.00000000e+00       0.00000000e+00 
       0.00000000e+00       0.00000000e+00       0.00000000e+00 
       0.00000000e+00       0.00000000e+00       0.00000000e+00 
       0.00000000e+00       0.00000000e+00       0.00000000e+00 
       3.93399318e-05      -4.01755910e-07      -1.45938036e-03 
       3.93399318e-05      -4.01755910e-07      -1.45938036e-03 
       3.93399318e-05      -4.01755910e-07      -1.45938036e-03 
       3.93399318e-05      -4.01755910e-07      -1.45938036e-03 
       1.96699659e-05      -2.00877955e-07      -7.29690179e-04 
       1.96699659e-05      -2.00877955e-07      -7.29690179e-04 
       1.96699659e-05      -2.00877955e-07      -7.29690179e-04 
       1.96699659e-05      -2.00877955e-07      -7.29690179e-04 
       0.00000000e+00       0.00000000e+00       0.00000000e+00 
       0.00000000e+00       0.00000000e+00       0.00000000e+00 
       0.00000000e+00       0.00000000e+00       0.00000000e+00 
       0.00000000e+00       0.00000000e+00       0.00000000e+00 
      -4.01454197e-05      -4.01754154e-07      -1.45946547e-03 
      -4.01454197e-05      -4.01754154e-07      -1.45946547e-03 
      -4.01454197e-05      -4.01754154e-07      -1.45946547e-03 
      -4.01454197e-05      -4.01754154e-07      -1.45946547e-03 
       0.00000000e+00       0.00000000e+00       0.00000000e+00 
       0.00000000e+00       0.00000000e+00       0.00000000e+00 
       0.00000000e+00       0.00000000e+00       0.00000000e+00 
       0.00000000e+00       0.00000000e+00       0.00000000e+00 
      -4.01454197e-05      -4.01754154e-07      -1.45946547e-03 
      -4.01454197e-05      -4.01754154e-07      -1.45946547e-03 
      -4.01454197e-05      -4.01754154e-07      -1.45946547e-03 
      -4.01454197e-05      -4.01754154e-07      -1.45946547e-03 
      -2.00727098e-05      -2.00877077e-07      -7.29732736e-04 
      -2.00727098e-05      -2.00877077e-07      -7.29732736e-04 
      -2.00727098e-05      -2.00877077e-07      -7.29732736e-04 
      -2.00727098e-05      -2.00877077e-07      -7.29732736e-04 
       0.00000000e+00       0.00000000e+00       0.00000000e+00 
       0.00000000e+00       0.00000000e+00       0.00000000e+00 
       0.00000000e+00       0.00000000e+00       0.00000000e+00 
       0.00000000e+00       0.00000000e+00       0.00000000e+00 
       3.93399318e-05      -4.01755910e-07      -1.45938036e-03 
       3.93399318e-05      -4.01755910e-07      -1.45938036e-03 
       3.93399318e-05      -4.01755910e-07      -1.45938036e-03 
       3.93399318e-05      -4.01755910e-07      -1.45938036e-03 
       0.00000000e+00       0.00000000e+00       0.00000000e+00 
       0.00000000e+00       0.00000000e+00       0.00000000e+00 
       0.00000000e+00       0.00000000e+00       0.00000000e+00 
       0.00000000e+00       0.00000000e+00       0.00000000e+00 
       3.93399318e-05      -4.01755910e-07      -1.45938036e-03 
       3.93399318e-05      -4.01755910e-07      -1.45938036e-03 
       3.93399318e-05      -4.01755910e-07      -1.45938036e-03 
       3.93399318e-05      -4.01755910e-07      -1.45938036e-03 
       1.96699659e-05      -2.00877955e-07      -7.29690179e-04 
       1.96699659e-05      -2.00877955e-07      -7.29690179e-04 
       1.96699659e-05      -2.00877955e-07      -7.29690179e-04 
       1.96699659e-05      -2.00877955e-07      -7.29690179e-04 
       0.00000000e+00       0.00000000e+00       0.00000000e+00 
       0.00000000e+00       0.00000000e+00       0.00000000e+00 
       0.00000000e+00       0.00000000e+00       0.00000000e+00 
       0.00000000e+00       0.00000000e+00       0.00000000e+00 
      -4.02567577e-07      -4.01435097e-05      -1.45944785e-03 
      -4.02567577e-07      -4.01435097e-05      -1.45944785e-03 
      -4.02567577e-07      -4.01435097e-05      -1.45944785e-03 
      -4.02567577e-07      -4.01435097e-05      -1.45944785e-03 
       0.00000000e+00       0.00000000e+00       0.00000000e+00 
       0.00000000e+00       0.00000000e+00       0.00000000e+00 
       0.00000000e+00       0.00000000e+00       0.00000000e+00 
       0.00000000e+00       0.00000000e+00       0.00000000e+00 
      -4.02567577e-07      -4.01435097e-05      -1.45944785e-03 
      -4.02567577e-07      -4.01435097e-05      -1.45944785e-03 
      -4.02567577e-07      -4.01435097e-05      -1.45944785e-03 
      -4.02567577e-07      -4.01435097e-05      -1.45944785e-03 
      -2.01283789e-07      -2.00717548e-05      -7.29723927e-04 
      -2.01283789e-07      -2.00717548e-05      -7.29723927e-04 
      -2.01283789e-07      -2.00717548e-05      -7.29723927e-04 
      -2.01283789e-07      -2.00717548e-05      -7.29723927e-04 
       0.00000000e+00       0.00000000e+00       0.00000000e+00 
       0.00000000e+00       0.00000000e+00       0.00000000e+00 
       0.00000000e+00       0.00000000e+00       0.00000000e+00 
       0.00000000e+00       0.00000000e+00       0.00000000e+00 
      -4.02569332e-07       3.93396506e-05      -1.45936292e-03 
      -4.02569332e-07       3.93396506e-05      -1.45936292e-03 
      -4.02569332e-07       3.93396506e-05      -1.45936292e-03 
      -4.02569332e-07       3.93396506e-05      -1.45936292e-03 
       0.00000000e+00       0.00000000e+00       0.00000000e+00 
       0.00000000e+00       0.00000000e+00       0.00000000e+00 
       0.00000000e+00       0.00000000e+00       0.00000000e+00 
       0.00000000e+00       0.00000000e+00       0.00000000e+00 
      -4.02569332e-07       3.93396506e-05      -1.45936292e-03 
      -4.02569332e-07       3.93396506e-05      -1.45936292e-03 
      -4.02569332e-07       3.93396506e-05      -1.45936292e-03 
      -4.02569332e-07       3.93396506e-05      -1.45936292e-03 
      -2.01284666e-07       1.96698253e-05      -7.29681462e-04 
      -2.01284666e-07       1.96698253e-05      -7.29681462e-04 
      -2.01284666e-07       1.96698253e-05      -7.29681462e-04 
      -2.01284666e-07       1.96698253e-05      -7.29681462e-04 
       0.00000000e+00       0.00000000e+00       0.00000000e+00 
       0.00000000e+00       0.00000000e+00       0.00000000e+00 
       0.00000000e+00       0.00000000e+00       0.00000000e+00 
       0.00000000e+00       0.00000000e+00       0.00000000e+00 
      -4.02567577e-07      -4.01435097e-05      -1.45944785e-03 
      -4.02567577e-07      -4.01435097e-05      -1.45944785e-03 
      -4.02567577e-07      -4.01435097e-05      -1.45944785e-03 
      -4.02567577e-07      -4.01435097e-05      -1.45944785e-03 
       0.00000000e+00       0.00000000e+00       0.00000000e+00 
       0.00000000e+00       0.00000000e+00       0.00000000e+00 
       0.00000000e+00       0.00000000e+00       0.00000000e+00 
       0.00000000e+00       0.00000000e+00       0.00000000e+00 
      -4.02567577e-07      -4.01435097e-05      -1.45944785e-03 
      -4.02567577e-07      -4.01435097e-05      -1.45944785e-03 
      -4.02567577e-07      -4.01435097e-05      -1.45944785e-03 
      -4.02567577e-07      -4.01435097e-05      -1.45944785e-03 
      -2.01283789e-07      -2.00717548e-05      -7.29723927e-04 
      -2.01283789e-07      -2.00717548e-05      -7.29723927e-04 
      -2.01283789e-07      -2.00717548e-05      -7.29723927e-04 
      -2.01283789e-07      -2.00717548e-05      -7.29723927e-04 
       0.00000000e+00       0.00000000e+00       0.00000000e+00 
       0.00000000e+00       0.00000000e+00       0.00000000e+00 
       0.00000000e+00       0.00000000e+00       0.00000000e+00 
       0.00000000e+00       0.00000000e+00       0.00000000e+00 
      -4.01454197e-05      -4.01754154e-07      -1.45946547e-03 
      -4.01454197e-05      -4.01754154e-07      -1.45946547e-03 
      -4.01454197e-05      -4.01754154e-07      -1.45946547e-03 
      -4.01454197e-05      -4.01754154e-07      -1.45946547e-03 
       0.00000000e+00       0.00000000e+00       0.00000000e+00 
       0.00000000e+00       0.00000000e+00       0.00000000e+00 
       0.00000000e+00       0.00000000e+00       0.00000000e+00 
       0.00000000e+00       0.00000000e+00       0.00000000e+00 
      -4.01454197e-05      -4.01754154e-07      -1.45946547e-03 
      -4.01454197e-05      -4.01754154e-07      -1.45946547e-03 
      -4.01454197e-05      -4.01754154e-07      -1.45946547e-03 
      -4.01454197e-05      -4.01754154e-07      -1.45946547e-03 
      -2.00727098e-05      -2.00877077e-07      -7.29732736e-04 
      -2.00727098e-05      -2.00877077e-07      -7.29732736e-04 
      -2.00727098e-05      -2.00877077e-07      -7.29732736e-04 
      -2.00727098e-05      -2.00877077e-07      -7.29732736e-04 
       0.00000000e+00       0.00000000e+00       0.00000000e+00 
       0.00000000e+00       0.00000000e+00       0.00000000e+00 
       0.00000000e+00       0.00000000e+00       0.00000000e+00 
       0.00000000e+00       0.00000000e+00       0.00000000e+00 
      -4.02569332e-07       3.93396506e-05      -1.45936292e-03 
      -4.02569332e-07       3.93396506e-05      -1.45936292e-03 
      -4.02569332e-07       3.93396506e-05      -1.45936292e-03 
      -4.02569332e-07       3.93396506e-05      -1.45936292e-03 
       0.00000000e+00       0.00000000e+00       0.00000000e+00 
       0.00000000e+00       0.00000000e+00       0.00000000e+00 
       0.00000000e+00       0.00000000e+00       0.00000000e+00 
       0.00000000e+00       0.00000000e+00       0.00000000e+00 
      -4.02569332e-07       3.93396506e-05      -1.45936292e-03 
      -4.02569332e-07       3.93396506e-05      -1.45936292e-03 
      -4.02569332e-07       3.93396506e-05      -1.45936292e-03 
      -4.02569332e-07       3.93396506e-05      -1.45936292e-03 
      -2.01284666e-07       1.96698253e-05      -7.29681462e-04 
      -2.01284666e-07       1.96698253e-05      -7.29681462e-04 
      -2.01284666e-07       1.96698253e-05      -7.29681462e-04 
      -2.01284666e-07       1.96698253e-05      -7.29681462e-04 
       0.00000000e+00       0.00000000e+00       0.00000000e+00 
       0.00000000e+00       0.00000000e+00       0.00000000e+00 
       0.00000000e+00       0.00000000e+00       0.00000000e+00 
       0.00000000e+00       0.00000000e+00       0.00000000e+00 
      -3.85247265e-04      -3.88327789e-04      -8.32471404e-03 
      -3.85247265e-04      -3.88327789e-04      -8.32471404e-03 
      -3.85247265e-04      -3.88327789e-04      -8.32471404e-03 
      -3.85247265e-04      -3.88327789e-04      -8.32471404e-03 
       0.00000000e+00       0.00000000e+00       0.00000000e+00 
       0.00000000e+00       0.00000000e+00       0.00000000e+00 
       0.00000000e+00       0.00000000e+00       0.00000000e+00 
       0.00000000e+00       0.00000000e+00       0.00000000e+00 
      -3.85247265e-04      -3.88327789e-04      -8.32471404e-03 
      -3.85247265e-04      -3.88327789e-04      -8.32471404e-03 
      -3.85247265e-04      -3.88327789e-04      -8.32471404e-03 
      -3.85247265e-04      -3.88327789e-04      -8.32471404e-03 
      -1.92623633e-04      -1.94163894e-04      -4.16235702e-03 
      -1.92623633e-04      -1.94163894e-04      -4.16235702e-03 
      -1.92623633e-04      -1.94163894e-04      -4.16235702e-03 
      -1.92623633e-04      -1.94163894e-04      -4.16235702e-03 
       0.00000000e+00       0.00000000e+00       0.00000000e+00 
       0.00000000e+00       0.00000000e+00       0.00000000e+00 
       0.00000000e+00       0.00000000e+00       0.00000000e+00 
       0.00000000e+00       0.00000000e+00       0.00000000e+00 
       3.84189250e-04      -3.88361207e-04      -8.32570795e-03 
       3.84189250e-04      -3.88361207e-04      -8.32570795e-03 
       3.84189250e-04      -3.88361207e-04      -8.32570795e-03 
       3.84189250e-04      -3.88361207e-04      -8.32570795e-03 
       0.00000000e+00       0.00000000e+00       0.00000000e+00 
       0.00000000e+00       0.00000000e+00       0.00000000e+00 
       0.00000000e+00       0.00000000e+00       0.00000000e+00 
       0.00000000e+00       0.00000000e+00       0.00000000e+00 
       3.84189250e-04      -3.88361207e-04      -8.32570795e-03 
       3.84189250e-04      -3.88361207e-04      -8.32570795e-03 
       3.84189250e-04      -3.88361207e-04      -8.32570795e-03 
       3.84189250e-04      -3.88361207e-04      -8.32570795e-03 
       1.92094625e-04      -1.94180603e-04      -4.16285398e-03 
       1.92094625e-04      -1.94180603e-04      -4.16285398e-03 
       1.92094625e-04      -1.94180603e-04      -4.16285398e-03 
       1.92094625e-04      -1.94180603e-04      -4.16285398e-03 
       0.00000000e+00       0.00000000e+00       0.00000000e+00 
       0.00000000e+00       0.00000000e+00       0.00000000e+00 
       0.00000000e+00       0.00000000e+00       0.00000000e+00 
       0.00000000e+00       0.00000000e+00       0.00000000e+00 
       3.84220878e-04       3.87305335e-04      -8.32670004e-03 
       3.84220878e-04       3.87305335e-04      -8.32670004e-03 
       3.84220878e-04       3.87305335e-04      -8.32670004e-03 
       3.84220878e-04       3.87305335e-04      -8.32670004e-03 
       0.00000000e+00       0.00000000e+00       0.00000000e+00 
       0.00000000e+00       0.00000000e+00       0.00000000e+00 
       0.00000000e+00       0.00000000e+00       0.00000000e+00 
       0.00000000e+00       0.00000000e+00       0.00000000e+00 
       3.84220878e-04       3.87305335e-04      -8.32670004e-03 
       3.84220878e-04       3.87305335e-04      -8.32670004e-03 
       3.84220878e-04       3.87305335e-04      -8.32670004e-03 
       3.84220878e-04       3.87305335e-04      -8.32670004e-03 
       1.92110439e-04       1.93652668e-04      -4.16335002e-03 
       1.92110439e-04       1.93652668e-04      -4.16335002e-03 
       1.92110439e-04       1.93652668e-04      -4.16335002e-03 
       1.92110439e-04       1.93652668e-04      -4.16335002e-03 
       0.00000000e+00       0.00000000e+00       0.00000000e+00 
       0.00000000e+00       0.00000000e+00       0.00000000e+00 
       0.00000000e+00       0.00000000e+00       0.00000000e+00 
       0.00000000e+00       0.00000000e+00       0.00000000e+00 
      -3.85278887e-04       3.87271911e-04      -8.32570613e-03 
      -3.85278887e-04       3.87271911e-04      -8.32570613e-03 
      -3.85278887e-04       3.87271911e-04      -8.32570613e-03 
      -3.85278887e-04       3.87271911e-04      -8.32570613e-03 
       0.00000000e+00       0.00000000e+00       0.00000000e+00 
       0.00000000e+00       0.00000000e+00       0.00000000e+00 
       0.00000000e+00       0.00000000e+00       0.00000000e+00 
       0.00000000e+00       0.00000000e+00       0.00000000e+00 
      -3.85278887e-04       3.87271911e-04      -8.32570613e-03 
      -3.85278887e-04       3.87271911e-04      -8.32570613e-03 
      -3.85278887e-04       3.87271911e-04      -8.32570613e-03 
      -3.85278887e-04       3.87271911e-04      -8.32570613e-03 
      -1.92639444e-04       1.93635955e-04      -4.16285307e-03 
      -1.92639444e-04       1.93635955e-04      -4.16285307e-03 
      -1.92639444e-04       1.93635955e-04      -4.16285307e-03 
      -1.92639444e-04       1.93635955e-04      -4.16285307e-03 
       3.93399318e-05      -4.01755910e-07      -1.45938036e-03 
       3.93399318e-05      -4.01755910e-07      -1.45938036e-03 
       3.93399318e-05      -4.01755910e-07      -1.45938036e-03 
       3.93399318e-05      -4.01755910e-07      -1.45938036e-03 
      -3.85278887e-04       3.87271911e-04      -8.32570613e-03 
      -3.85278887e-04       3.87271911e-04      -8.32570613e-03 
      -3.85278887e-04       3.87271911e-04      -8.32570613e-03 
      -3.85278887e-04       3.87271911e-04      -8.32570613e-03 
       3.93399318e-05      -4.01755910e-07      -1.45938036e-03 
       3.93399318e-05      -4.01755910e-07      -1.45938036e-03 
       3.93399318e-05      -4.01755910e-07      -1.45938036e-03 
       3.93399318e-05      -4.01755910e-07      -1.45938036e-03 
      -3.85278887e-04       3.87271911e-04      -8.32570613e-03 
      -3.85278887e-04       3.87271911e-04      -8.32570613e-03 
      -3.85278887e-04       3.87271911e-04      -8.32570613e-03 
      -3.85278887e-04       3.87271911e-04      -8.32570613e-03 
      -1.72969478e-04       1.93435077e-04      -4.89254325e-03 
      -1.72969478e-04       1.93435077e-04      -4.89254325e-03 
      -1.72969478e-04       1.93435077e-04      -4.89254325e-03 
      -1.72969478e-04       1.93435077e-04      -4.89254325e-03 
       3.93399318e-05      -4.01755910e-07      -1.45938036e-03 
       3.93399318e-05      -4.01755910e-07      -1.45938036e-03 
       3.93399318e-05      -4.01755910e-07      -1.45938036e-03 
       3.93399318e-05      -4.01755910e-07      -1.45938036e-03 
      -3.85247265e-04      -3.88327789e-04      -8.32471404e-03 
      -3.85247265e-04      -3.88327789e-04      -8.32471404e-03 
      -3.85247265e-04      -3.88327789e-04      -8.32471404e-03 
      -3.85247265e-04      -3.88327789e-04      -8.32471404e-03 
       3.93399318e-05      -4.01755910e-07      -1.45938036e-03 
       3.93399318e-05      -4.01755910e-07      -1.45938036e-03 
       3.93399318e-05      -4.01755910e-07      -1.45938036e-03 
       3.93399318e-05      -4.01755910e-07      -1.45938036e-03 
      -3.85247265e-04      -3.88327789e-04      -8.32471404e-03 
      -3.85247265e-04      -3.88327789e-04      -8.32471404e-03 
      -3.85247265e-04      -3.88327789e-04      -8.32471404e-03 
      -3.85247265e-04      -3.88327789e-04      -8.32471404e-03 
      -1.72953667e-04      -1.94364772e-04      -4.89204720e-03 
      -1.72953667e-04      -1.94364772e-04      -4.89204720e-03 
      -1.72953667e-04      -1.94364772e-04      -4.89204720e-03 
      -1.72953667e-04      -1.94364772e-04      -4.89204720e-03 
      -4.01454197e-05      -4.01754154e-07      -1.45946547e-03 
      -4.01454197e-05      -4.01754154e-07      -1.45946547e-03 
      -4.01454197e-05      -4.01754154e-07      -1.45946547e-03 
      -4.01454197e-05      -4.01754154e-07      -1.45946547e-03 
       3.84220878e-04       3.87305335e-04      -8.32670004e-03 
       3.84220878e-04       3.87305335e-04      -8.32670004e-03 
       3.84220878e-04       3.87305335e-04      -8.32670004e-03 
       3.84220878e-04       3.87305335e-04      -8.32670004e-03 
      -4.01454197e-05      -4.01754154e-07      -1.45946547e-03 
      -4.01454197e-05      -4.01754154e-07      -1.45946547e-03 
      -4.01454197e-05      -4.01754154e-07      -1.45946547e-03 
      -4.01454197e-05      -4.01754154e-07      -1.45946547e-03 
       3.84220878e-04       3.87305335e-04      -8.32670004e-03 
       3.84220878e-04       3.87305335e-04      -8.32670004e-03 
       3.84220878e-04       3.87305335e-04      -8.32670004e-03 
       3.84220878e-04       3.87305335e-04      -8.32670004e-03 
       1.72037729e-04       1.93451791e-04      -4.89308276e-03 
       1.72037729e-04       1.93451791e-04      -4.89308276e-03 
       1.72037729e-04       1.93451791e-04      -4.89308276e-03 
       1.72037729e-04       1.93451791e-04      -4.89308276e-03 
      -4.01454197e-05      -4.01754154e-07      -1.45946547e-03 
      -4.01454197e-05      -4.01754154e-07      -1.45946547e-03 
      -4.01454197e-05      -4.01754154e-07      -1.45946547e-03 
      -4.01454197e-05      -4.01754154e-07      -1.45946547e-03 
      -4.02569332e-07       3.93396506e-05      -1.45936292e-03 
      -4.02569332e-07       3.93396506e-05      -1.45936292e-03 