# vtk DataFile Version 2.0
./output/Static_Tower/Static_Tower_0002.vtk
ASCII
DATASET UNSTRUCTURED_GRID

POINTS 13260 float
      -4.427466e+00       4.404289e+00      -9.630249e-03 
      -4.400660e+00       4.406969e+00      -9.630249e-03 
      -4.402534e+00       4.425711e+00       9.630249e-03 
      -4.429340e+00       4.423031e+00       9.630249e-03 
      -3.985978e+00      -1.071134e-02       4.329505e+00 
      -3.959172e+00      -8.030810e-03       4.329505e+00 
      -3.961046e+00       1.071131e-02       4.348765e+00 
      -3.987852e+00       8.030790e-03       4.348765e+00 
      -4.413675e+00       4.401747e+00      -1.361923e-02 
      -4.396045e+00       4.416895e+00       0.000000e+00 
      -4.416325e+00       4.428253e+00       1.361923e-02 
      -4.433955e+00       4.413105e+00       0.000000e+00 
      -3.972187e+00      -1.325269e-02       4.325516e+00 
      -3.954558e+00       1.895407e-03       4.339135e+00 
      -3.974837e+00       1.325267e-02       4.352754e+00 
      -3.992467e+00      -1.895428e-03       4.339135e+00 
      -4.206722e+00       2.196789e+00       2.159937e+00 
      -4.179916e+00       2.199469e+00       2.159937e+00 
      -4.181790e+00       2.218211e+00       2.179198e+00 
      -4.208596e+00       2.215531e+00       2.179198e+00 
       4.400661e+00       4.406968e+00      -9.630169e-03 
       4.427467e+00       4.404290e+00      -9.630169e-03 
       4.429339e+00       4.423032e+00       9.630169e-03 
       4.402533e+00       4.425710e+00       9.630169e-03 
       3.959546e+00      -8.032092e-03       4.329543e+00 
       3.986352e+00      -1.071037e-02       4.329543e+00 
       3.988225e+00       8.032071e-03       4.348803e+00 
       3.961419e+00       1.071035e-02       4.348803e+00 
       4.413676e+00       4.401747e+00      -1.361912e-02 
       4.433955e+00       4.413106e+00       0.000000e+00 
       4.416324e+00       4.428253e+00       1.361912e-02 
       4.396045e+00       4.416894e+00       0.000000e+00 
       3.972561e+00      -1.325292e-02       4.325554e+00 
       3.992840e+00      -1.893842e-03       4.339173e+00 
       3.975209e+00       1.325290e-02       4.352792e+00 
       3.954930e+00       1.893821e-03       4.339173e+00 
       4.180103e+00       2.199468e+00       2.159956e+00 
       4.206909e+00       2.196790e+00       2.159956e+00 
       4.208782e+00       2.215532e+00       2.179217e+00 
       4.181976e+00       2.218210e+00       2.179217e+00 
      -4.400660e+00      -4.406969e+00      -9.630249e-03 
      -4.427466e+00      -4.404289e+00      -9.630249e-03 
      -4.429340e+00      -4.423031e+00       9.630249e-03 
      -4.402534e+00      -4.425711e+00       9.630249e-03 
      -3.959172e+00       8.030790e-03       4.329505e+00 
      -3.985978e+00       1.071131e-02       4.329505e+00 
      -3.987852e+00      -8.030810e-03       4.348765e+00 
      -3.961046e+00      -1.071134e-02       4.348765e+00 
      -4.413675e+00      -4.401747e+00      -1.361923e-02 
      -4.433955e+00      -4.413105e+00       0.000000e+00 
      -4.416325e+00      -4.428253e+00       1.361923e-02 
      -4.396045e+00      -4.416895e+00       0.000000e+00 
      -3.972187e+00       1.325267e-02       4.325516e+00 
      -3.992467e+00       1.895407e-03       4.339135e+00 
      -3.974837e+00      -1.325269e-02       4.352754e+00 
      -3.954558e+00      -1.895428e-03       4.339135e+00 
      -4.179916e+00      -2.199469e+00       2.159937e+00 
      -4.206722e+00      -2.196789e+00       2.159937e+00 
      -4.208596e+00      -2.215531e+00       2.179198e+00 
      -4.181790e+00      -2.218211e+00       2.179198e+00 
      -4.406969e+00       4.400660e+00      -9.630401e-03 
      -4.404289e+00       4.427466e+00      -9.630401e-03 
      -4.423031e+00       4.429340e+00       9.630401e-03 
      -4.425711e+00       4.402534e+00       9.630401e-03 
       8.213141e-03       3.959359e+00       4.329523e+00 
       1.089244e-02       3.986165e+00       4.329523e+00 
      -7.849467e-03       3.988038e+00       4.348784e+00 
      -1.052876e-02       3.961232e+00       4.348784e+00 
      -4.401747e+00       4.413675e+00      -1.361944e-02 
      -4.413105e+00       4.433955e+00       0.000000e+00 
      -4.428253e+00       4.416325e+00       1.361944e-02 
      -4.416895e+00       4.396045e+00       0.000000e+00 
       1.343436e-02       3.972374e+00       4.325534e+00 
       2.076384e-03       3.992654e+00       4.339154e+00 
      -1.307069e-02       3.975023e+00       4.352773e+00 
      -1.712711e-03       3.954744e+00       4.339154e+00 
      -2.199378e+00       4.180010e+00       2.159947e+00 
      -2.196698e+00       4.206816e+00       2.159947e+00 
      -2.215440e+00       4.208689e+00       2.179207e+00 
      -2.218120e+00       4.181883e+00       2.179207e+00 
      -4.404289e+00      -4.427466e+00      -9.630401e-03 
      -4.406969e+00      -4.400660e+00      -9.630401e-03 
      -4.425711e+00      -4.402534e+00       9.630401e-03 
      -4.423031e+00      -4.429340e+00       9.630401e-03 
       1.089244e-02      -3.986165e+00       4.329523e+00 
       8.213141e-03      -3.959359e+00       4.329523e+00 
      -1.052876e-02      -3.961232e+00       4.348784e+00 
      -7.849467e-03      -3.988038e+00       4.348784e+00 
      -4.401747e+00      -4.413675e+00      -1.361944e-02 
      -4.416895e+00      -4.396045e+00       0.000000e+00 
      -4.428253e+00      -4.416325e+00       1.361944e-02 
      -4.413105e+00      -4.433955e+00       0.000000e+00 
       1.343436e-02      -3.972374e+00       4.325534e+00 
      -1.712711e-03      -3.954744e+00       4.339154e+00 
      -1.307069e-02      -3.975023e+00       4.352773e+00 
       2.076384e-03      -3.992654e+00       4.339154e+00 
      -2.196698e+00      -4.206816e+00       2.159947e+00 
      -2.199378e+00      -4.180010e+00       2.159947e+00 
      -2.218120e+00      -4.181883e+00       2.179207e+00 
      -2.215440e+00      -4.208689e+00       2.179207e+00 
       4.404289e+00       4.427466e+00      -9.630017e-03 
       4.406968e+00       4.400660e+00      -9.630017e-03 
       4.425711e+00       4.402534e+00       9.630017e-03 
       4.423032e+00       4.429340e+00       9.630017e-03 
      -1.052925e-02       3.986165e+00       4.329524e+00 
      -7.849741e-03       3.959359e+00       4.329524e+00 
       1.089293e-02       3.961232e+00       4.348784e+00 
       8.213414e-03       3.988039e+00       4.348784e+00 
       4.401747e+00       4.413675e+00      -1.361890e-02 
       4.416895e+00       4.396045e+00       0.000000e+00 
       4.428253e+00       4.416325e+00       1.361890e-02 
       4.413105e+00       4.433955e+00       0.000000e+00 
      -1.307123e-02       3.972374e+00       4.325535e+00 
       2.076539e-03       3.954744e+00       4.339154e+00 
       1.343490e-02       3.975024e+00       4.352773e+00 
      -1.712865e-03       3.992654e+00       4.339154e+00 
       2.196880e+00       4.206816e+00       2.159947e+00 
       2.199559e+00       4.180010e+00       2.159947e+00 
       2.218302e+00       4.181883e+00       2.179207e+00 
       2.215622e+00       4.208689e+00       2.179207e+00 
       4.427467e+00      -4.404290e+00      -9.630169e-03 
       4.400661e+00      -4.406968e+00      -9.630169e-03 
       4.402533e+00      -4.425710e+00       9.630169e-03 
       4.429339e+00      -4.423032e+00       9.630169e-03 
       3.986352e+00       1.071035e-02       4.329543e+00 
       3.959546e+00       8.032071e-03       4.329543e+00 
       3.961419e+00      -1.071037e-02       4.348803e+00 
       3.988225e+00      -8.032092e-03       4.348803e+00 
       4.413676e+00      -4.401747e+00      -1.361912e-02 
       4.396045e+00      -4.416894e+00       0.000000e+00 
       4.416324e+00      -4.428253e+00       1.361912e-02 
       4.433955e+00      -4.413106e+00       0.000000e+00 
       3.972561e+00       1.325290e-02       4.325554e+00 
       3.954930e+00      -1.893842e-03       4.339173e+00 
       3.975209e+00      -1.325292e-02       4.352792e+00 
       3.992840e+00       1.893821e-03       4.339173e+00 
       4.206909e+00      -2.196790e+00       2.159956e+00 
       4.180103e+00      -2.199468e+00       2.159956e+00 
       4.181976e+00      -2.218210e+00       2.179217e+00 
       4.208782e+00      -2.215532e+00       2.179217e+00 
       4.406968e+00      -4.400660e+00      -9.630017e-03 
       4.404289e+00      -4.427466e+00      -9.630017e-03 
       4.423032e+00      -4.429340e+00       9.630017e-03 
       4.425711e+00      -4.402534e+00       9.630017e-03 
      -7.849741e-03      -3.959359e+00       4.329524e+00 
      -1.052925e-02      -3.986165e+00       4.329524e+00 
       8.213414e-03      -3.988039e+00       4.348784e+00 
       1.089293e-02      -3.961232e+00       4.348784e+00 
       4.401747e+00      -4.413675e+00      -1.361890e-02 
       4.413105e+00      -4.433955e+00       0.000000e+00 
       4.428253e+00      -4.416325e+00       1.361890e-02 
       4.416895e+00      -4.396045e+00       0.000000e+00 
      -1.307123e-02      -3.972374e+00       4.325535e+00 
      -1.712865e-03      -3.992654e+00       4.339154e+00 
       1.343490e-02      -3.975024e+00       4.352773e+00 
       2.076538e-03      -3.954744e+00       4.339154e+00 
       2.199559e+00      -4.180010e+00       2.159947e+00 
       2.196880e+00      -4.206816e+00       2.159947e+00 
       2.215622e+00      -4.208689e+00       2.179207e+00 
       2.218302e+00      -4.181883e+00       2.179207e+00 
      -4.381887e+00      -4.415178e+00      -3.351080e-03 
      -4.415161e+00      -4.381887e+00      -3.351080e-03 
      -4.448113e+00      -4.414822e+00       3.351080e-03 
      -4.414839e+00      -4.448113e+00       3.351080e-03 
      -3.940362e+00      -3.973882e+00       4.336001e+00 
      -3.973635e+00      -3.940591e+00       4.336001e+00 
      -4.006587e+00      -3.973526e+00       4.342703e+00 
[...]
POINT_DATA     13260 
VECTORS Displacements float
       0.00000000e+00       0.00000000e+00       0.00000000e+00 
       0.00000000e+00       0.00000000e+00       0.00000000e+00 
       0.00000000e+00       0.00000000e+00       0.00000000e+00 
       0.00000000e+00       0.00000000e+00       0.00000000e+00 
       1.87747004e-04      -1.02278585e-08      -6.51241068e-05 
       1.87747004e-04      -1.02278585e-08      -6.51241068e-05 
       1.87747004e-04      -1.02278585e-08      -6.51241068e-05 
       1.87747004e-04      -1.02278585e-08      -6.51241068e-05 
       0.00000000e+00       0.00000000e+00       0.00000000e+00 
       0.00000000e+00       0.00000000e+00       0.00000000e+00 
       0.00000000e+00       0.00000000e+00       0.00000000e+00 
       0.00000000e+00       0.00000000e+00       0.00000000e+00 
       1.87747004e-04      -1.02278585e-08      -6.51241068e-05 
       1.87747004e-04      -1.02278585e-08      -6.51241068e-05 
       1.87747004e-04      -1.02278585e-08      -6.51241068e-05 
       1.87747004e-04      -1.02278585e-08      -6.51241068e-05 
       9.38735018e-05      -5.11392926e-09      -3.25620534e-05 
       9.38735018e-05      -5.11392926e-09      -3.25620534e-05 
       9.38735018e-05      -5.11392926e-09      -3.25620534e-05 
       9.38735018e-05      -5.11392926e-09      -3.25620534e-05 
       0.00000000e+00       0.00000000e+00       0.00000000e+00 
       0.00000000e+00       0.00000000e+00       0.00000000e+00 
       0.00000000e+00       0.00000000e+00       0.00000000e+00 
       0.00000000e+00       0.00000000e+00       0.00000000e+00 
       1.85319821e-04      -1.03472831e-08      -2.71903304e-05 
       1.85319821e-04      -1.03472831e-08      -2.71903304e-05 
       1.85319821e-04      -1.03472831e-08      -2.71903304e-05 
       1.85319821e-04      -1.03472831e-08      -2.71903304e-05 
       0.00000000e+00       0.00000000e+00       0.00000000e+00 
       0.00000000e+00       0.00000000e+00       0.00000000e+00 
       0.00000000e+00       0.00000000e+00       0.00000000e+00 
       0.00000000e+00       0.00000000e+00       0.00000000e+00 
       1.85319821e-04      -1.03472831e-08      -2.71903304e-05 
       1.85319821e-04      -1.03472831e-08      -2.71903304e-05 
       1.85319821e-04      -1.03472831e-08      -2.71903304e-05 
       1.85319821e-04      -1.03472831e-08      -2.71903304e-05 
       9.26599104e-05      -5.17364155e-09      -1.35951652e-05 
       9.26599104e-05      -5.17364155e-09      -1.35951652e-05 
       9.26599104e-05      -5.17364155e-09      -1.35951652e-05 
       9.26599104e-05      -5.17364155e-09      -1.35951652e-05 
       0.00000000e+00       0.00000000e+00       0.00000000e+00 
       0.00000000e+00       0.00000000e+00       0.00000000e+00 
       0.00000000e+00       0.00000000e+00       0.00000000e+00 
       0.00000000e+00       0.00000000e+00       0.00000000e+00 
       1.87747004e-04      -1.02278585e-08      -6.51241068e-05 
       1.87747004e-04      -1.02278585e-08      -6.51241068e-05 
       1.87747004e-04      -1.02278585e-08      -6.51241068e-05 
       1.87747004e-04      -1.02278585e-08      -6.51241068e-05 
       0.00000000e+00       0.00000000e+00       0.00000000e+00 
       0.00000000e+00       0.00000000e+00       0.00000000e+00 
       0.00000000e+00       0.00000000e+00       0.00000000e+00 
       0.00000000e+00       0.00000000e+00       0.00000000e+00 
       1.87747004e-04      -1.02278585e-08      -6.51241068e-05 
       1.87747004e-04      -1.02278585e-08      -6.51241068e-05 
       1.87747004e-04      -1.02278585e-08      -6.51241068e-05 
       1.87747004e-04      -1.02278585e-08      -6.51241068e-05 
       9.38735018e-05      -5.11392926e-09      -3.25620534e-05 
       9.38735018e-05      -5.11392926e-09      -3.25620534e-05 
       9.38735018e-05      -5.11392926e-09      -3.25620534e-05 
       9.38735018e-05      -5.11392926e-09      -3.25620534e-05 
       0.00000000e+00       0.00000000e+00       0.00000000e+00 
       0.00000000e+00       0.00000000e+00       0.00000000e+00 
       0.00000000e+00       0.00000000e+00       0.00000000e+00 
       0.00000000e+00       0.00000000e+00       0.00000000e+00 
       1.81836768e-04      -1.22459365e-06      -4.61646049e-05 
       1.81836768e-04      -1.22459365e-06      -4.61646049e-05 
       1.81836768e-04      -1.22459365e-06      -4.61646049e-05 
       1.81836768e-04      -1.22459365e-06      -4.61646049e-05 
       0.00000000e+00       0.00000000e+00       0.00000000e+00 
       0.00000000e+00       0.00000000e+00       0.00000000e+00 
       0.00000000e+00       0.00000000e+00       0.00000000e+00 
       0.00000000e+00       0.00000000e+00       0.00000000e+00 
       1.81836768e-04      -1.22459365e-06      -4.61646049e-05 
       1.81836768e-04      -1.22459365e-06      -4.61646049e-05 
       1.81836768e-04      -1.22459365e-06      -4.61646049e-05 
       1.81836768e-04      -1.22459365e-06      -4.61646049e-05 
       9.09183842e-05      -6.12296825e-07      -2.30823025e-05 
       9.09183842e-05      -6.12296825e-07      -2.30823025e-05 
       9.09183842e-05      -6.12296825e-07      -2.30823025e-05 
       9.09183842e-05      -6.12296825e-07      -2.30823025e-05 
       0.00000000e+00       0.00000000e+00       0.00000000e+00 
       0.00000000e+00       0.00000000e+00       0.00000000e+00 
       0.00000000e+00       0.00000000e+00       0.00000000e+00 
       0.00000000e+00       0.00000000e+00       0.00000000e+00 
       1.81836668e-04       1.20401823e-06      -4.61625120e-05 
       1.81836668e-04       1.20401823e-06      -4.61625120e-05 
       1.81836668e-04       1.20401823e-06      -4.61625120e-05 
       1.81836668e-04       1.20401823e-06      -4.61625120e-05 
       0.00000000e+00       0.00000000e+00       0.00000000e+00 
       0.00000000e+00       0.00000000e+00       0.00000000e+00 
       0.00000000e+00       0.00000000e+00       0.00000000e+00 
       0.00000000e+00       0.00000000e+00       0.00000000e+00 
       1.81836668e-04       1.20401823e-06      -4.61625120e-05 
       1.81836668e-04       1.20401823e-06      -4.61625120e-05 
       1.81836668e-04       1.20401823e-06      -4.61625120e-05 
       1.81836668e-04       1.20401823e-06      -4.61625120e-05 
       9.09183340e-05       6.02009114e-07      -2.30812560e-05 
       9.09183340e-05       6.02009114e-07      -2.30812560e-05 
       9.09183340e-05       6.02009114e-07      -2.30812560e-05 
       9.09183340e-05       6.02009114e-07      -2.30812560e-05 
       0.00000000e+00       0.00000000e+00       0.00000000e+00 
       0.00000000e+00       0.00000000e+00       0.00000000e+00 
       0.00000000e+00       0.00000000e+00       0.00000000e+00 
       0.00000000e+00       0.00000000e+00       0.00000000e+00 
       1.81836768e-04      -1.22459365e-06      -4.61646049e-05 
       1.81836768e-04      -1.22459365e-06      -4.61646049e-05 
       1.81836768e-04      -1.22459365e-06      -4.61646049e-05 
       1.81836768e-04      -1.22459365e-06      -4.61646049e-05 
       0.00000000e+00       0.00000000e+00       0.00000000e+00 
       0.00000000e+00       0.00000000e+00       0.00000000e+00 
       0.00000000e+00       0.00000000e+00       0.00000000e+00 
       0.00000000e+00       0.00000000e+00       0.00000000e+00 
       1.81836768e-04      -1.22459365e-06      -4.61646049e-05 
       1.81836768e-04      -1.22459365e-06      -4.61646049e-05 
       1.81836768e-04      -1.22459365e-06      -4.61646049e-05 
       1.81836768e-04      -1.22459365e-06      -4.61646049e-05 
       9.09183842e-05      -6.12296825e-07      -2.30823025e-05 
       9.09183842e-05      -6.12296825e-07      -2.30823025e-05 
       9.09183842e-05      -6.12296825e-07      -2.30823025e-05 
       9.09183842e-05      -6.12296825e-07      -2.30823025e-05 
       0.00000000e+00       0.00000000e+00       0.00000000e+00 
       0.00000000e+00       0.00000000e+00       0.00000000e+00 
       0.00000000e+00       0.00000000e+00       0.00000000e+00 
       0.00000000e+00       0.00000000e+00       0.00000000e+00 
       1.85319821e-04      -1.03472831e-08      -2.71903304e-05 
       1.85319821e-04      -1.03472831e-08      -2.71903304e-05 
       1.85319821e-04      -1.03472831e-08      -2.71903304e-05 
       1.85319821e-04      -1.03472831e-08      -2.71903304e-05 
       0.00000000e+00       0.00000000e+00       0.00000000e+00 
       0.00000000e+00       0.00000000e+00       0.00000000e+00 
       0.00000000e+00       0.00000000e+00       0.00000000e+00 
       0.00000000e+00       0.00000000e+00       0.00000000e+00 
       1.85319821e-04      -1.03472831e-08      -2.71903304e-05 
       1.85319821e-04      -1.03472831e-08      -2.71903304e-05 
       1.85319821e-04      -1.03472831e-08      -2.71903304e-05 
       1.85319821e-04      -1.03472831e-08      -2.71903304e-05 
       9.26599104e-05      -5.17364155e-09      -1.35951652e-05 
       9.26599104e-05      -5.17364155e-09      -1.35951652e-05 
       9.26599104e-05      -5.17364155e-09      -1.35951652e-05 
       9.26599104e-05      -5.17364155e-09      -1.35951652e-05 
       0.00000000e+00       0.00000000e+00       0.00000000e+00 
       0.00000000e+00       0.00000000e+00       0.00000000e+00 
       0.00000000e+00       0.00000000e+00       0.00000000e+00 
       0.00000000e+00       0.00000000e+00       0.00000000e+00 
       1.81836668e-04       1.20401823e-06      -4.61625120e-05 
       1.81836668e-04       1.20401823e-06      -4.61625120e-05 
       1.81836668e-04       1.20401823e-06      -4.61625120e-05 
       1.81836668e-04       1.20401823e-06      -4.61625120e-05 
       0.00000000e+00       0.00000000e+00       0.00000000e+00 
       0.00000000e+00       0.00000000e+00       0.00000000e+00 
       0.00000000e+00       0.00000000e+00       0.00000000e+00 
       0.00000000e+00       0.00000000e+00       0.00000000e+00 
       1.81836668e-04       1.20401823e-06      -4.61625120e-05 
       1.81836668e-04       1.20401823e-06      -4.61625120e-05 
       1.81836668e-04       1.20401823e-06      -4.61625120e-05 
       1.81836668e-04       1.20401823e-06      -4.61625120e-05 
       9.09183340e-05       6.02009114e-07      -2.30812560e-05 
       9.09183340e-05       6.02009114e-07      -2.30812560e-05 
       9.09183340e-05       6.02009114e-07      -2.30812560e-05 
       9.09183340e-05       6.02009114e-07      -2.30812560e-05 
       0.00000000e+00       0.00000000e+00       0.00000000e+00 
       0.00000000e+00       0.00000000e+00       0.00000000e+00 
       0.00000000e+00       0.00000000e+00       0.00000000e+00 
       0.00000000e+00       0.00000000e+00       0.00000000e+00 
       2.25535066e-04      -3.76894251e-06       1.51935773e-04 
       2.25535066e-04      -3.76894251e-06       1.51935773e-04 
       2.25535066e-04      -3.76894251e-06       1.51935773e-04 
       2.25535066e-04      -3.76894251e-06       1.51935773e-04 
       0.00000000e+00       0.00000000e+00       0.00000000e+00 
       0.00000000e+00       0.00000000e+00       0.00000000e+00 
       0.00000000e+00       0.00000000e+00       0.00000000e+00 
       0.00000000e+00       0.00000000e+00       0.00000000e+00 
       2.25535066e-04      -3.76894251e-06       1.51935773e-04 
       2.25535066e-04      -3.76894251e-06       1.51935773e-04 
       2.25535066e-04      -3.76894251e-06       1.51935773e-04 
       2.25535066e-04      -3.76894251e-06       1.51935773e-04 
       1.12767533e-04      -1.88447126e-06       7.59678863e-05 
       1.12767533e-04      -1.88447126e-06       7.59678863e-05 
       1.12767533e-04      -1.88447126e-06       7.59678863e-05 
       1.12767533e-04      -1.88447126e-06       7.59678863e-05 
       0.00000000e+00       0.00000000e+00       0.00000000e+00 
       0.00000000e+00       0.00000000e+00       0.00000000e+00 
       0.00000000e+00       0.00000000e+00       0.00000000e+00 
       0.00000000e+00       0.00000000e+00       0.00000000e+00 
       2.49322147e-04      -2.01454635e-05      -5.02662882e-04 
       2.49322147e-04      -2.01454635e-05      -5.02662882e-04 
       2.49322147e-04      -2.01454635e-05      -5.02662882e-04 
       2.49322147e-04      -2.01454635e-05      -5.02662882e-04 
       0.00000000e+00       0.00000000e+00       0.00000000e+00 
       0.00000000e+00       0.00000000e+00       0.00000000e+00 
       0.00000000e+00       0.00000000e+00       0.00000000e+00 
       0.00000000e+00       0.00000000e+00       0.00000000e+00 
       2.49322147e-04      -2.01454635e-05      -5.02662882e-04 
       2.49322147e-04      -2.01454635e-05      -5.02662882e-04 
       2.49322147e-04      -2.01454635e-05      -5.02662882e-04 
       2.49322147e-04      -2.01454635e-05      -5.02662882e-04 
       1.24661073e-04      -1.00727318e-05      -2.51331441e-04 
       1.24661073e-04      -1.00727318e-05      -2.51331441e-04 
       1.24661073e-04      -1.00727318e-05      -2.51331441e-04 
       1.24661073e-04      -1.00727318e-05      -2.51331441e-04 
       0.00000000e+00       0.00000000e+00       0.00000000e+00 
       0.00000000e+00       0.00000000e+00       0.00000000e+00 
       0.00000000e+00       0.00000000e+00       0.00000000e+00 
       0.00000000e+00       0.00000000e+00       0.00000000e+00 
       2.49323494e-04       2.01180532e-05      -5.02689711e-04 
       2.49323494e-04       2.01180532e-05      -5.02689711e-04 
       2.49323494e-04       2.01180532e-05      -5.02689711e-04 
       2.49323494e-04       2.01180532e-05      -5.02689711e-04 
       0.00000000e+00       0.00000000e+00       0.00000000e+00 
       0.00000000e+00       0.00000000e+00       0.00000000e+00 
       0.00000000e+00       0.00000000e+00       0.00000000e+00 
       0.00000000e+00       0.00000000e+00       0.00000000e+00 
       2.49323494e-04       2.01180532e-05      -5.02689711e-04 
       2.49323494e-04       2.01180532e-05      -5.02689711e-04 
       2.49323494e-04       2.01180532e-05      -5.02689711e-04 
       2.49323494e-04       2.01180532e-05      -5.02689711e-04 
       1.24661747e-04       1.00590266e-05      -2.51344855e-04 
       1.24661747e-04       1.00590266e-05      -2.51344855e-04 
       1.24661747e-04       1.00590266e-05      -2.51344855e-04 
       1.24661747e-04       1.00590266e-05      -2.51344855e-04 
       0.00000000e+00       0.00000000e+00       0.00000000e+00 
       0.00000000e+00       0.00000000e+00       0.00000000e+00 
       0.00000000e+00       0.00000000e+00       0.00000000e+00 
       0.00000000e+00       0.00000000e+00       0.00000000e+00 
       2.25533968e-04       3.74186651e-06       1.51908969e-04 
       2.25533968e-04       3.74186651e-06       1.51908969e-04 
       2.25533968e-04       3.74186651e-06       1.51908969e-04 
       2.25533968e-04       3.74186651e-06       1.51908969e-04 
       0.00000000e+00       0.00000000e+00       0.00000000e+00 
       0.00000000e+00       0.00000000e+00       0.00000000e+00 
       0.00000000e+00       0.00000000e+00       0.00000000e+00 
       0.00000000e+00       0.00000000e+00       0.00000000e+00 
       2.25533968e-04       3.74186651e-06       1.51908969e-04 
       2.25533968e-04       3.74186651e-06       1.51908969e-04 
       2.25533968e-04       3.74186651e-06       1.51908969e-04 
       2.25533968e-04       3.74186651e-06       1.51908969e-04 
       1.12766984e-04       1.87093325e-06       7.59544846e-05 
       1.12766984e-04       1.87093325e-06       7.59544846e-05 
       1.12766984e-04       1.87093325e-06       7.59544846e-05 
       1.12766984e-04       1.87093325e-06       7.59544846e-05 
       1.87747004e-04      -1.02278585e-08      -6.51241068e-05 
       1.87747004e-04      -1.02278585e-08      -6.51241068e-05 
       1.87747004e-04      -1.02278585e-08      -6.51241068e-05 
       1.87747004e-04      -1.02278585e-08      -6.51241068e-05 
       2.25533968e-04       3.74186651e-06       1.51908969e-04 
       2.25533968e-04       3.74186651e-06       1.51908969e-04 
       2.25533968e-04       3.74186651e-06       1.51908969e-04 
       2.25533968e-04       3.74186651e-06       1.51908969e-04 
       1.87747004e-04      -1.02278585e-08      -6.51241068e-05 
       1.87747004e-04      -1.02278585e-08      -6.51241068e-05 
       1.87747004e-04      -1.02278585e-08      -6.51241068e-05 
       1.87747004e-04      -1.02278585e-08      -6.51241068e-05 
       2.25533968e-04       3.74186651e-06       1.51908969e-04 
       2.25533968e-04       3.74186651e-06       1.51908969e-04 
       2.25533968e-04       3.74186651e-06       1.51908969e-04 
       2.25533968e-04       3.74186651e-06       1.51908969e-04 
       2.06640486e-04       1.86581932e-06       4.33924312e-05 
       2.06640486e-04       1.86581932e-06       4.33924312e-05 
       2.06640486e-04       1.86581932e-06       4.33924312e-05 
       2.06640486e-04       1.86581932e-06       4.33924312e-05 
       1.87747004e-04      -1.02278585e-08      -6.51241068e-05 
       1.87747004e-04      -1.02278585e-08      -6.51241068e-05 
       1.87747004e-04      -1.02278585e-08      -6.51241068e-05 
       1.87747004e-04      -1.02278585e-08      -6.51241068e-05 
       2.25535066e-04      -3.76894251e-06       1.51935773e-04 
       2.25535066e-04      -3.76894251e-06       1.51935773e-04 
       2.25535066e-04      -3.76894251e-06       1.51935773e-04 
       2.25535066e-04      -3.76894251e-06       1.51935773e-04 
       1.87747004e-04      -1.02278585e-08      -6.51241068e-05 
       1.87747004e-04      -1.02278585e-08      -6.51241068e-05 
       1.87747004e-04      -1.02278585e-08      -6.51241068e-05 
       1.87747004e-04      -1.02278585e-08      -6.51241068e-05 
       2.25535066e-04      -3.76894251e-06       1.51935773e-04 
       2.25535066e-04      -3.76894251e-06       1.51935773e-04 
       2.25535066e-04      -3.76894251e-06       1.51935773e-04 
       2.25535066e-04      -3.76894251e-06       1.51935773e-04 
       2.06641035e-04      -1.88958519e-06       4.34058329e-05 
       2.06641035e-04      -1.88958519e-06       4.34058329e-05 
       2.06641035e-04      -1.88958519e-06       4.34058329e-05 
       2.06641035e-04      -1.88958519e-06       4.34058329e-05 
       1.85319821e-04      -1.03472831e-08      -2.71903304e-05 
       1.85319821e-04      -1.03472831e-08      -2.71903304e-05 
       1.85319821e-04      -1.03472831e-08      -2.71903304e-05 
       1.85319821e-04      -1.03472831e-08      -2.71903304e-05 
       2.49323494e-04       2.01180532e-05      -5.02689711e-04 
       2.49323494e-04       2.01180532e-05      -5.02689711e-04 
       2.49323494e-04       2.01180532e-05      -5.02689711e-04 
       2.49323494e-04       2.01180532e-05      -5.02689711e-04 
       1.85319821e-04      -1.03472831e-08      -2.71903304e-05 
       1.85319821e-04      -1.03472831e-08      -2.71903304e-05 
       1.85319821e-04      -1.03472831e-08      -2.71903304e-05 
       1.85319821e-04      -1.03472831e-08      -2.71903304e-05 
       2.49323494e-04       2.01180532e-05      -5.02689711e-04 
       2.49323494e-04       2.01180532e-05      -5.02689711e-04 
       2.49323494e-04       2.01180532e-05      -5.02689711e-04 
       2.49323494e-04       2.01180532e-05      -5.02689711e-04 
       2.17321657e-04       1.00538530e-05      -2.64940020e-04 
       2.17321657e-04       1.00538530e-05      -2.64940020e-04 
       2.17321657e-04       1.00538530e-05      -2.64940020e-04 
       2.17321657e-04       1.00538530e-05      -2.64940020e-04 
       1.85319821e-04      -1.03472831e-08      -2.71903304e-05 
       1.85319821e-04      -1.03472831e-08      -2.71903304e-05 
       1.85319821e-04      -1.03472831e-08      -2.71903304e-05 
       1.85319821e-04      -1.03472831e-08      -2.71903304e-05 
       1.81836668e-04       1.20401823e-06      -4.61625120e-05 
       1.81836668e-04       1.20401823e-06      -4.61625120e-05 