# vtk DataFile Version 2.0
./output/Static_Tower/Static_Tower_0005.vtk
ASCII
DATASET UNSTRUCTURED_GRID

POINTS 13260 float
      -4.335799e+00       4.312526e+00      -9.534438e-03 
      -4.309007e+00       4.315349e+00      -9.534438e-03 
      -4.311001e+00       4.334274e+00       9.534438e-03 
      -4.337793e+00       4.331451e+00       9.534438e-03 
      -3.880276e+00      -1.087401e-02       4.328836e+00 
      -3.853485e+00      -8.051218e-03       4.328836e+00 
      -3.855479e+00       1.087360e-02       4.347905e+00 
      -3.882270e+00       8.050802e-03       4.347905e+00 
      -4.321990e+00       4.310018e+00      -1.348373e-02 
      -4.304456e+00       4.325396e+00       0.000000e+00 
      -4.324810e+00       4.336782e+00       1.348373e-02 
      -4.342344e+00       4.321404e+00       0.000000e+00 
      -3.866468e+00      -1.338207e-02       4.324887e+00 
      -3.848933e+00       1.995810e-03       4.338370e+00 
      -3.869288e+00       1.338166e-02       4.351854e+00 
      -3.886822e+00      -1.996226e-03       4.338370e+00 
      -4.108038e+00       2.150826e+00       2.159651e+00 
      -4.081246e+00       2.153649e+00       2.159651e+00 
      -4.083240e+00       2.172574e+00       2.178720e+00 
      -4.110031e+00       2.169751e+00       2.178720e+00 
       4.309007e+00       4.315349e+00      -9.534438e-03 
       4.335799e+00       4.312526e+00      -9.534438e-03 
       4.337793e+00       4.331451e+00       9.534438e-03 
       4.311001e+00       4.334274e+00       9.534438e-03 
       3.853485e+00      -8.051216e-03       4.328836e+00 
       3.880276e+00      -1.087401e-02       4.328836e+00 
       3.882270e+00       8.050801e-03       4.347905e+00 
       3.855478e+00       1.087360e-02       4.347905e+00 
       4.321990e+00       4.310018e+00      -1.348373e-02 
       4.342344e+00       4.321404e+00       0.000000e+00 
       4.324810e+00       4.336782e+00       1.348373e-02 
       4.304456e+00       4.325396e+00       0.000000e+00 
       3.866467e+00      -1.338207e-02       4.324887e+00 
       3.886822e+00      -1.996228e-03       4.338370e+00 
       3.869287e+00       1.338166e-02       4.351854e+00 
       3.848933e+00       1.995812e-03       4.338370e+00 
       4.081246e+00       2.153649e+00       2.159651e+00 
       4.108037e+00       2.150826e+00       2.159651e+00 
       4.110031e+00       2.169751e+00       2.178720e+00 
       4.083240e+00       2.172574e+00       2.178720e+00 
      -4.309007e+00      -4.315349e+00      -9.534437e-03 
      -4.335799e+00      -4.312526e+00      -9.534437e-03 
      -4.337793e+00      -4.331451e+00       9.534437e-03 
      -4.311001e+00      -4.334274e+00       9.534437e-03 
      -3.853485e+00       8.050803e-03       4.328836e+00 
      -3.880276e+00       1.087360e-02       4.328836e+00 
      -3.882270e+00      -8.051218e-03       4.347905e+00 
      -3.855479e+00      -1.087401e-02       4.347905e+00 
      -4.321990e+00      -4.310018e+00      -1.348373e-02 
      -4.342344e+00      -4.321404e+00       0.000000e+00 
      -4.324810e+00      -4.336782e+00       1.348373e-02 
      -4.304456e+00      -4.325396e+00       0.000000e+00 
      -3.866468e+00       1.338166e-02       4.324887e+00 
      -3.886822e+00       1.995811e-03       4.338370e+00 
      -3.869288e+00      -1.338207e-02       4.351854e+00 
      -3.848933e+00      -1.996226e-03       4.338370e+00 
      -4.081246e+00      -2.153649e+00       2.159651e+00 
      -4.108038e+00      -2.150826e+00       2.159651e+00 
      -4.110031e+00      -2.169751e+00       2.178720e+00 
      -4.083240e+00      -2.172574e+00       2.178720e+00 
      -4.315349e+00       4.309007e+00      -9.534438e-03 
      -4.312526e+00       4.335799e+00      -9.534438e-03 
      -4.331451e+00       4.337793e+00       9.534438e-03 
      -4.334274e+00       4.311001e+00       9.534438e-03 
       8.050801e-03       3.853485e+00       4.328836e+00 
       1.087360e-02       3.880276e+00       4.328836e+00 
      -8.051217e-03       3.882270e+00       4.347905e+00 
      -1.087402e-02       3.855478e+00       4.347905e+00 
      -4.310018e+00       4.321990e+00      -1.348373e-02 
      -4.321404e+00       4.342344e+00       0.000000e+00 
      -4.336782e+00       4.324810e+00       1.348373e-02 
      -4.325396e+00       4.304456e+00       0.000000e+00 
       1.338166e-02       3.866467e+00       4.324887e+00 
       1.995812e-03       3.886822e+00       4.338370e+00 
      -1.338207e-02       3.869287e+00       4.351854e+00 
      -1.996228e-03       3.848933e+00       4.338370e+00 
      -2.153649e+00       4.081246e+00       2.159651e+00 
      -2.150826e+00       4.108037e+00       2.159651e+00 
      -2.169751e+00       4.110031e+00       2.178720e+00 
      -2.172574e+00       4.083240e+00       2.178720e+00 
      -4.312526e+00      -4.335799e+00      -9.534437e-03 
      -4.315349e+00      -4.309007e+00      -9.534437e-03 
      -4.334274e+00      -4.311001e+00       9.534437e-03 
      -4.331451e+00      -4.337793e+00       9.534437e-03 
       1.087360e-02      -3.880276e+00       4.328836e+00 
       8.050802e-03      -3.853485e+00       4.328836e+00 
      -1.087401e-02      -3.855479e+00       4.347905e+00 
      -8.051218e-03      -3.882270e+00       4.347905e+00 
      -4.310018e+00      -4.321990e+00      -1.348373e-02 
      -4.325396e+00      -4.304456e+00       0.000000e+00 
      -4.336782e+00      -4.324810e+00       1.348373e-02 
      -4.321404e+00      -4.342344e+00       0.000000e+00 
       1.338166e-02      -3.866468e+00       4.324887e+00 
      -1.996226e-03      -3.848933e+00       4.338370e+00 
      -1.338207e-02      -3.869288e+00       4.351854e+00 
       1.995810e-03      -3.886822e+00       4.338370e+00 
      -2.150826e+00      -4.108038e+00       2.159651e+00 
      -2.153649e+00      -4.081246e+00       2.159651e+00 
      -2.172574e+00      -4.083240e+00       2.178720e+00 
      -2.169751e+00      -4.110031e+00       2.178720e+00 
       4.312526e+00       4.335799e+00      -9.534438e-03 
       4.315349e+00       4.309007e+00      -9.534438e-03 
       4.334274e+00       4.311001e+00       9.534438e-03 
       4.331451e+00       4.337793e+00       9.534438e-03 
      -1.087401e-02       3.880276e+00       4.328836e+00 
      -8.051216e-03       3.853485e+00       4.328836e+00 
       1.087360e-02       3.855478e+00       4.347905e+00 
       8.050801e-03       3.882270e+00       4.347905e+00 
       4.310018e+00       4.321990e+00      -1.348373e-02 
       4.325396e+00       4.304456e+00       0.000000e+00 
       4.336782e+00       4.324810e+00       1.348373e-02 
       4.321404e+00       4.342344e+00       0.000000e+00 
      -1.338207e-02       3.866467e+00       4.324887e+00 
       1.995812e-03       3.848933e+00       4.338370e+00 
       1.338166e-02       3.869287e+00       4.351854e+00 
      -1.996228e-03       3.886822e+00       4.338370e+00 
       2.150826e+00       4.108037e+00       2.159651e+00 
       2.153649e+00       4.081246e+00       2.159651e+00 
       2.172574e+00       4.083240e+00       2.178720e+00 
       2.169751e+00       4.110031e+00       2.178720e+00 
       4.335799e+00      -4.312526e+00      -9.534438e-03 
       4.309007e+00      -4.315349e+00      -9.534438e-03 
       4.311001e+00      -4.334274e+00       9.534438e-03 
       4.337793e+00      -4.331451e+00       9.534438e-03 
       3.880276e+00       1.087360e-02       4.328836e+00 
       3.853485e+00       8.050801e-03       4.328836e+00 
       3.855478e+00      -1.087402e-02       4.347905e+00 
       3.882270e+00      -8.051216e-03       4.347905e+00 
       4.321990e+00      -4.310018e+00      -1.348373e-02 
       4.304456e+00      -4.325396e+00       0.000000e+00 
       4.324810e+00      -4.336782e+00       1.348373e-02 
       4.342344e+00      -4.321404e+00       0.000000e+00 
       3.866467e+00       1.338166e-02       4.324887e+00 
       3.848933e+00      -1.996228e-03       4.338370e+00 
       3.869287e+00      -1.338207e-02       4.351854e+00 
       3.886822e+00       1.995812e-03       4.338370e+00 
       4.108037e+00      -2.150826e+00       2.159651e+00 
       4.081246e+00      -2.153649e+00       2.159651e+00 
       4.083240e+00      -2.172574e+00       2.178720e+00 
       4.110031e+00      -2.169751e+00       2.178720e+00 
       4.315349e+00      -4.309007e+00      -9.534438e-03 
       4.312526e+00      -4.335799e+00      -9.534438e-03 
       4.331451e+00      -4.337793e+00       9.534438e-03 
       4.334274e+00      -4.311001e+00       9.534438e-03 
      -8.051218e-03      -3.853485e+00       4.328836e+00 
      -1.087401e-02      -3.880276e+00       4.328836e+00 
       8.050802e-03      -3.882270e+00       4.347905e+00 
       1.087360e-02      -3.855479e+00       4.347905e+00 
       4.310018e+00      -4.321990e+00      -1.348373e-02 
       4.321404e+00      -4.342344e+00       0.000000e+00 
       4.336782e+00      -4.324810e+00       1.348373e-02 
       4.325396e+00      -4.304456e+00       0.000000e+00 
      -1.338207e-02      -3.866468e+00       4.324887e+00 
      -1.996226e-03      -3.886822e+00       4.338370e+00 
       1.338166e-02      -3.869288e+00       4.351854e+00 
       1.995810e-03      -3.848933e+00       4.338370e+00 
       2.153649e+00      -4.081246e+00       2.159651e+00 
       2.150826e+00      -4.108038e+00       2.159651e+00 
       2.169751e+00      -4.110031e+00       2.178720e+00 
       2.172574e+00      -4.083240e+00       2.178720e+00 
      -4.290298e+00      -4.323581e+00      -3.457791e-03 
      -4.323581e+00      -4.290298e+00      -3.457791e-03 
      -4.356502e+00      -4.323219e+00       3.457791e-03 
      -4.323219e+00      -4.356502e+00       3.457791e-03 
      -3.835035e+00      -3.868318e+00       4.331045e+00 
      -3.868317e+00      -3.835035e+00       4.331045e+00 
      -3.901239e+00      -3.867957e+00       4.337961e+00 
[...]
POINT_DATA     13260 
VECTORS Displacements float
       0.00000000e+00       0.00000000e+00       0.00000000e+00 
       0.00000000e+00       0.00000000e+00       0.00000000e+00 
       0.00000000e+00       0.00000000e+00       0.00000000e+00 
       0.00000000e+00       0.00000000e+00       0.00000000e+00 
       2.23911436e-05      -2.07670392e-07      -8.29666795e-04 
       2.23911436e-05      -2.07670392e-07      -8.29666795e-04 
       2.23911436e-05      -2.07670392e-07      -8.29666795e-04 
       2.23911436e-05      -2.07670392e-07      -8.29666795e-04 
       0.00000000e+00       0.00000000e+00       0.00000000e+00 
       0.00000000e+00       0.00000000e+00       0.00000000e+00 
       0.00000000e+00       0.00000000e+00       0.00000000e+00 
       0.00000000e+00       0.00000000e+00       0.00000000e+00 
       2.23911436e-05      -2.07670392e-07      -8.29666795e-04 
       2.23911436e-05      -2.07670392e-07      -8.29666795e-04 
       2.23911436e-05      -2.07670392e-07      -8.29666795e-04 
       2.23911436e-05      -2.07670392e-07      -8.29666795e-04 
       1.11955718e-05      -1.03835196e-07      -4.14833398e-04 
       1.11955718e-05      -1.03835196e-07      -4.14833398e-04 
       1.11955718e-05      -1.03835196e-07      -4.14833398e-04 
       1.11955718e-05      -1.03835196e-07      -4.14833398e-04 
       0.00000000e+00       0.00000000e+00       0.00000000e+00 
       0.00000000e+00       0.00000000e+00       0.00000000e+00 
       0.00000000e+00       0.00000000e+00       0.00000000e+00 
       0.00000000e+00       0.00000000e+00       0.00000000e+00 
      -2.28072070e-05      -2.07669328e-07      -8.29710653e-04 
      -2.28072070e-05      -2.07669328e-07      -8.29710653e-04 
      -2.28072070e-05      -2.07669328e-07      -8.29710653e-04 
      -2.28072070e-05      -2.07669328e-07      -8.29710653e-04 
       0.00000000e+00       0.00000000e+00       0.00000000e+00 
       0.00000000e+00       0.00000000e+00       0.00000000e+00 
       0.00000000e+00       0.00000000e+00       0.00000000e+00 
       0.00000000e+00       0.00000000e+00       0.00000000e+00 
      -2.28072070e-05      -2.07669328e-07      -8.29710653e-04 
      -2.28072070e-05      -2.07669328e-07      -8.29710653e-04 
      -2.28072070e-05      -2.07669328e-07      -8.29710653e-04 
      -2.28072070e-05      -2.07669328e-07      -8.29710653e-04 
      -1.14036035e-05      -1.03834664e-07      -4.14855327e-04 
      -1.14036035e-05      -1.03834664e-07      -4.14855327e-04 
      -1.14036035e-05      -1.03834664e-07      -4.14855327e-04 
      -1.14036035e-05      -1.03834664e-07      -4.14855327e-04 
       0.00000000e+00       0.00000000e+00       0.00000000e+00 
       0.00000000e+00       0.00000000e+00       0.00000000e+00 
       0.00000000e+00       0.00000000e+00       0.00000000e+00 
       0.00000000e+00       0.00000000e+00       0.00000000e+00 
       2.23911436e-05      -2.07670392e-07      -8.29666795e-04 
       2.23911436e-05      -2.07670392e-07      -8.29666795e-04 
       2.23911436e-05      -2.07670392e-07      -8.29666795e-04 
       2.23911436e-05      -2.07670392e-07      -8.29666795e-04 
       0.00000000e+00       0.00000000e+00       0.00000000e+00 
       0.00000000e+00       0.00000000e+00       0.00000000e+00 
       0.00000000e+00       0.00000000e+00       0.00000000e+00 
       0.00000000e+00       0.00000000e+00       0.00000000e+00 
       2.23911436e-05      -2.07670392e-07      -8.29666795e-04 
       2.23911436e-05      -2.07670392e-07      -8.29666795e-04 
       2.23911436e-05      -2.07670392e-07      -8.29666795e-04 
       2.23911436e-05      -2.07670392e-07      -8.29666795e-04 
       1.11955718e-05      -1.03835196e-07      -4.14833398e-04 
       1.11955718e-05      -1.03835196e-07      -4.14833398e-04 
       1.11955718e-05      -1.03835196e-07      -4.14833398e-04 
       1.11955718e-05      -1.03835196e-07      -4.14833398e-04 
       0.00000000e+00       0.00000000e+00       0.00000000e+00 
       0.00000000e+00       0.00000000e+00       0.00000000e+00 
       0.00000000e+00       0.00000000e+00       0.00000000e+00 
       0.00000000e+00       0.00000000e+00       0.00000000e+00 
      -2.07978567e-07      -2.28067918e-05      -8.29708921e-04 
      -2.07978567e-07      -2.28067918e-05      -8.29708921e-04 
      -2.07978567e-07      -2.28067918e-05      -8.29708921e-04 
      -2.07978567e-07      -2.28067918e-05      -8.29708921e-04 
       0.00000000e+00       0.00000000e+00       0.00000000e+00 
       0.00000000e+00       0.00000000e+00       0.00000000e+00 
       0.00000000e+00       0.00000000e+00       0.00000000e+00 
       0.00000000e+00       0.00000000e+00       0.00000000e+00 
      -2.07978567e-07      -2.28067918e-05      -8.29708921e-04 
      -2.07978567e-07      -2.28067918e-05      -8.29708921e-04 
      -2.07978567e-07      -2.28067918e-05      -8.29708921e-04 
      -2.07978567e-07      -2.28067918e-05      -8.29708921e-04 
      -1.03989284e-07      -1.14033959e-05      -4.14854460e-04 
      -1.03989284e-07      -1.14033959e-05      -4.14854460e-04 
      -1.03989284e-07      -1.14033959e-05      -4.14854460e-04 
      -1.03989284e-07      -1.14033959e-05      -4.14854460e-04 
       0.00000000e+00       0.00000000e+00       0.00000000e+00 
       0.00000000e+00       0.00000000e+00       0.00000000e+00 
       0.00000000e+00       0.00000000e+00       0.00000000e+00 
       0.00000000e+00       0.00000000e+00       0.00000000e+00 
      -2.07979631e-07       2.23913472e-05      -8.29665130e-04 
      -2.07979631e-07       2.23913472e-05      -8.29665130e-04 
      -2.07979631e-07       2.23913472e-05      -8.29665130e-04 
      -2.07979631e-07       2.23913472e-05      -8.29665130e-04 
       0.00000000e+00       0.00000000e+00       0.00000000e+00 
       0.00000000e+00       0.00000000e+00       0.00000000e+00 
       0.00000000e+00       0.00000000e+00       0.00000000e+00 
       0.00000000e+00       0.00000000e+00       0.00000000e+00 
      -2.07979631e-07       2.23913472e-05      -8.29665130e-04 
      -2.07979631e-07       2.23913472e-05      -8.29665130e-04 
      -2.07979631e-07       2.23913472e-05      -8.29665130e-04 
      -2.07979631e-07       2.23913472e-05      -8.29665130e-04 
      -1.03989815e-07       1.11956736e-05      -4.14832565e-04 
      -1.03989815e-07       1.11956736e-05      -4.14832565e-04 
      -1.03989815e-07       1.11956736e-05      -4.14832565e-04 
      -1.03989815e-07       1.11956736e-05      -4.14832565e-04 
       0.00000000e+00       0.00000000e+00       0.00000000e+00 
       0.00000000e+00       0.00000000e+00       0.00000000e+00 
       0.00000000e+00       0.00000000e+00       0.00000000e+00 
       0.00000000e+00       0.00000000e+00       0.00000000e+00 
      -2.07978567e-07      -2.28067918e-05      -8.29708921e-04 
      -2.07978567e-07      -2.28067918e-05      -8.29708921e-04 
      -2.07978567e-07      -2.28067918e-05      -8.29708921e-04 
      -2.07978567e-07      -2.28067918e-05      -8.29708921e-04 
       0.00000000e+00       0.00000000e+00       0.00000000e+00 
       0.00000000e+00       0.00000000e+00       0.00000000e+00 
       0.00000000e+00       0.00000000e+00       0.00000000e+00 
       0.00000000e+00       0.00000000e+00       0.00000000e+00 
      -2.07978567e-07      -2.28067918e-05      -8.29708921e-04 
      -2.07978567e-07      -2.28067918e-05      -8.29708921e-04 
      -2.07978567e-07      -2.28067918e-05      -8.29708921e-04 
      -2.07978567e-07      -2.28067918e-05      -8.29708921e-04 
      -1.03989284e-07      -1.14033959e-05      -4.14854460e-04 
      -1.03989284e-07      -1.14033959e-05      -4.14854460e-04 
      -1.03989284e-07      -1.14033959e-05      -4.14854460e-04 
      -1.03989284e-07      -1.14033959e-05      -4.14854460e-04 
       0.00000000e+00       0.00000000e+00       0.00000000e+00 
       0.00000000e+00       0.00000000e+00       0.00000000e+00 
       0.00000000e+00       0.00000000e+00       0.00000000e+00 
       0.00000000e+00       0.00000000e+00       0.00000000e+00 
      -2.28072070e-05      -2.07669328e-07      -8.29710653e-04 
      -2.28072070e-05      -2.07669328e-07      -8.29710653e-04 
      -2.28072070e-05      -2.07669328e-07      -8.29710653e-04 
      -2.28072070e-05      -2.07669328e-07      -8.29710653e-04 
       0.00000000e+00       0.00000000e+00       0.00000000e+00 
       0.00000000e+00       0.00000000e+00       0.00000000e+00 
       0.00000000e+00       0.00000000e+00       0.00000000e+00 
       0.00000000e+00       0.00000000e+00       0.00000000e+00 
      -2.28072070e-05      -2.07669328e-07      -8.29710653e-04 
      -2.28072070e-05      -2.07669328e-07      -8.29710653e-04 
      -2.28072070e-05      -2.07669328e-07      -8.29710653e-04 
      -2.28072070e-05      -2.07669328e-07      -8.29710653e-04 
      -1.14036035e-05      -1.03834664e-07      -4.14855327e-04 
      -1.14036035e-05      -1.03834664e-07      -4.14855327e-04 
      -1.14036035e-05      -1.03834664e-07      -4.14855327e-04 
      -1.14036035e-05      -1.03834664e-07      -4.14855327e-04 
       0.00000000e+00       0.00000000e+00       0.00000000e+00 
       0.00000000e+00       0.00000000e+00       0.00000000e+00 
       0.00000000e+00       0.00000000e+00       0.00000000e+00 
       0.00000000e+00       0.00000000e+00       0.00000000e+00 
      -2.07979631e-07       2.23913472e-05      -8.29665130e-04 
      -2.07979631e-07       2.23913472e-05      -8.29665130e-04 
      -2.07979631e-07       2.23913472e-05      -8.29665130e-04 
      -2.07979631e-07       2.23913472e-05      -8.29665130e-04 
       0.00000000e+00       0.00000000e+00       0.00000000e+00 
       0.00000000e+00       0.00000000e+00       0.00000000e+00 
       0.00000000e+00       0.00000000e+00       0.00000000e+00 
       0.00000000e+00       0.00000000e+00       0.00000000e+00 
      -2.07979631e-07       2.23913472e-05      -8.29665130e-04 
      -2.07979631e-07       2.23913472e-05      -8.29665130e-04 
      -2.07979631e-07       2.23913472e-05      -8.29665130e-04 
      -2.07979631e-07       2.23913472e-05      -8.29665130e-04 
      -1.03989815e-07       1.11956736e-05      -4.14832565e-04 
      -1.03989815e-07       1.11956736e-05      -4.14832565e-04 
      -1.03989815e-07       1.11956736e-05      -4.14832565e-04 
      -1.03989815e-07       1.11956736e-05      -4.14832565e-04 
       0.00000000e+00       0.00000000e+00       0.00000000e+00 
       0.00000000e+00       0.00000000e+00       0.00000000e+00 
       0.00000000e+00       0.00000000e+00       0.00000000e+00 
       0.00000000e+00       0.00000000e+00       0.00000000e+00 
      -2.36748846e-04      -2.37278699e-04      -4.69710843e-03 
      -2.36748846e-04      -2.37278699e-04      -4.69710843e-03 
      -2.36748846e-04      -2.37278699e-04      -4.69710843e-03 
      -2.36748846e-04      -2.37278699e-04      -4.69710843e-03 
       0.00000000e+00       0.00000000e+00       0.00000000e+00 
       0.00000000e+00       0.00000000e+00       0.00000000e+00 
       0.00000000e+00       0.00000000e+00       0.00000000e+00 
       0.00000000e+00       0.00000000e+00       0.00000000e+00 
      -2.36748846e-04      -2.37278699e-04      -4.69710843e-03 
      -2.36748846e-04      -2.37278699e-04      -4.69710843e-03 
      -2.36748846e-04      -2.37278699e-04      -4.69710843e-03 
      -2.36748846e-04      -2.37278699e-04      -4.69710843e-03 
      -1.18374423e-04      -1.18639349e-04      -2.34855422e-03 
      -1.18374423e-04      -1.18639349e-04      -2.34855422e-03 
      -1.18374423e-04      -1.18639349e-04      -2.34855422e-03 
      -1.18374423e-04      -1.18639349e-04      -2.34855422e-03 
       0.00000000e+00       0.00000000e+00       0.00000000e+00 
       0.00000000e+00       0.00000000e+00       0.00000000e+00 
       0.00000000e+00       0.00000000e+00       0.00000000e+00 
       0.00000000e+00       0.00000000e+00       0.00000000e+00 
       2.36202619e-04      -2.37299997e-04      -4.69762648e-03 
       2.36202619e-04      -2.37299997e-04      -4.69762648e-03 
       2.36202619e-04      -2.37299997e-04      -4.69762648e-03 
       2.36202619e-04      -2.37299997e-04      -4.69762648e-03 
       0.00000000e+00       0.00000000e+00       0.00000000e+00 
       0.00000000e+00       0.00000000e+00       0.00000000e+00 
       0.00000000e+00       0.00000000e+00       0.00000000e+00 
       0.00000000e+00       0.00000000e+00       0.00000000e+00 
       2.36202619e-04      -2.37299997e-04      -4.69762648e-03 
       2.36202619e-04      -2.37299997e-04      -4.69762648e-03 
       2.36202619e-04      -2.37299997e-04      -4.69762648e-03 
       2.36202619e-04      -2.37299997e-04      -4.69762648e-03 
       1.18101310e-04      -1.18649999e-04      -2.34881324e-03 
       1.18101310e-04      -1.18649999e-04      -2.34881324e-03 
       1.18101310e-04      -1.18649999e-04      -2.34881324e-03 
       1.18101310e-04      -1.18649999e-04      -2.34881324e-03 
       0.00000000e+00       0.00000000e+00       0.00000000e+00 
       0.00000000e+00       0.00000000e+00       0.00000000e+00 
       0.00000000e+00       0.00000000e+00       0.00000000e+00 
       0.00000000e+00       0.00000000e+00       0.00000000e+00 
       2.36223408e-04       2.36754586e-04      -4.69814380e-03 
       2.36223408e-04       2.36754586e-04      -4.69814380e-03 
       2.36223408e-04       2.36754586e-04      -4.69814380e-03 
       2.36223408e-04       2.36754586e-04      -4.69814380e-03 
       0.00000000e+00       0.00000000e+00       0.00000000e+00 
       0.00000000e+00       0.00000000e+00       0.00000000e+00 
       0.00000000e+00       0.00000000e+00       0.00000000e+00 
       0.00000000e+00       0.00000000e+00       0.00000000e+00 
       2.36223408e-04       2.36754586e-04      -4.69814380e-03 
       2.36223408e-04       2.36754586e-04      -4.69814380e-03 
       2.36223408e-04       2.36754586e-04      -4.69814380e-03 
       2.36223408e-04       2.36754586e-04      -4.69814380e-03 
       1.18111704e-04       1.18377293e-04      -2.34907190e-03 
       1.18111704e-04       1.18377293e-04      -2.34907190e-03 
       1.18111704e-04       1.18377293e-04      -2.34907190e-03 
       1.18111704e-04       1.18377293e-04      -2.34907190e-03 
       0.00000000e+00       0.00000000e+00       0.00000000e+00 
       0.00000000e+00       0.00000000e+00       0.00000000e+00 
       0.00000000e+00       0.00000000e+00       0.00000000e+00 
       0.00000000e+00       0.00000000e+00       0.00000000e+00 
      -2.36769631e-04       2.36733284e-04      -4.69762576e-03 
      -2.36769631e-04       2.36733284e-04      -4.69762576e-03 
      -2.36769631e-04       2.36733284e-04      -4.69762576e-03 
      -2.36769631e-04       2.36733284e-04      -4.69762576e-03 
       0.00000000e+00       0.00000000e+00       0.00000000e+00 
       0.00000000e+00       0.00000000e+00       0.00000000e+00 
       0.00000000e+00       0.00000000e+00       0.00000000e+00 
       0.00000000e+00       0.00000000e+00       0.00000000e+00 
      -2.36769631e-04       2.36733284e-04      -4.69762576e-03 
      -2.36769631e-04       2.36733284e-04      -4.69762576e-03 
      -2.36769631e-04       2.36733284e-04      -4.69762576e-03 
      -2.36769631e-04       2.36733284e-04      -4.69762576e-03 
      -1.18384815e-04       1.18366642e-04      -2.34881288e-03 
      -1.18384815e-04       1.18366642e-04      -2.34881288e-03 
      -1.18384815e-04       1.18366642e-04      -2.34881288e-03 
      -1.18384815e-04       1.18366642e-04      -2.34881288e-03 
       2.23911436e-05      -2.07670392e-07      -8.29666795e-04 
       2.23911436e-05      -2.07670392e-07      -8.29666795e-04 
       2.23911436e-05      -2.07670392e-07      -8.29666795e-04 
       2.23911436e-05      -2.07670392e-07      -8.29666795e-04 
      -2.36769631e-04       2.36733284e-04      -4.69762576e-03 
      -2.36769631e-04       2.36733284e-04      -4.69762576e-03 
      -2.36769631e-04       2.36733284e-04      -4.69762576e-03 
      -2.36769631e-04       2.36733284e-04      -4.69762576e-03 
       2.23911436e-05      -2.07670392e-07      -8.29666795e-04 
       2.23911436e-05      -2.07670392e-07      -8.29666795e-04 
       2.23911436e-05      -2.07670392e-07      -8.29666795e-04 
       2.23911436e-05      -2.07670392e-07      -8.29666795e-04 
      -2.36769631e-04       2.36733284e-04      -4.69762576e-03 
      -2.36769631e-04       2.36733284e-04      -4.69762576e-03 
      -2.36769631e-04       2.36733284e-04      -4.69762576e-03 
      -2.36769631e-04       2.36733284e-04      -4.69762576e-03 
      -1.07189244e-04       1.18262807e-04      -2.76364628e-03 
      -1.07189244e-04       1.18262807e-04      -2.76364628e-03 
      -1.07189244e-04       1.18262807e-04      -2.76364628e-03 
      -1.07189244e-04       1.18262807e-04      -2.76364628e-03 
       2.23911436e-05      -2.07670392e-07      -8.29666795e-04 
       2.23911436e-05      -2.07670392e-07      -8.29666795e-04 
       2.23911436e-05      -2.07670392e-07      -8.29666795e-04 
       2.23911436e-05      -2.07670392e-07      -8.29666795e-04 
      -2.36748846e-04      -2.37278699e-04      -4.69710843e-03 
      -2.36748846e-04      -2.37278699e-04      -4.69710843e-03 
      -2.36748846e-04      -2.37278699e-04      -4.69710843e-03 
      -2.36748846e-04      -2.37278699e-04      -4.69710843e-03 
       2.23911436e-05      -2.07670392e-07      -8.29666795e-04 
       2.23911436e-05      -2.07670392e-07      -8.29666795e-04 
       2.23911436e-05      -2.07670392e-07      -8.29666795e-04 
       2.23911436e-05      -2.07670392e-07      -8.29666795e-04 
      -2.36748846e-04      -2.37278699e-04      -4.69710843e-03 
      -2.36748846e-04      -2.37278699e-04      -4.69710843e-03 
      -2.36748846e-04      -2.37278699e-04      -4.69710843e-03 
      -2.36748846e-04      -2.37278699e-04      -4.69710843e-03 
      -1.07178851e-04      -1.18743185e-04      -2.76338761e-03 
      -1.07178851e-04      -1.18743185e-04      -2.76338761e-03 
      -1.07178851e-04      -1.18743185e-04      -2.76338761e-03 
      -1.07178851e-04      -1.18743185e-04      -2.76338761e-03 
      -2.28072070e-05      -2.07669328e-07      -8.29710653e-04 
      -2.28072070e-05      -2.07669328e-07      -8.29710653e-04 
      -2.28072070e-05      -2.07669328e-07      -8.29710653e-04 
      -2.28072070e-05      -2.07669328e-07      -8.29710653e-04 
       2.36223408e-04       2.36754586e-04      -4.69814380e-03 
       2.36223408e-04       2.36754586e-04      -4.69814380e-03 
       2.36223408e-04       2.36754586e-04      -4.69814380e-03 
       2.36223408e-04       2.36754586e-04      -4.69814380e-03 
      -2.28072070e-05      -2.07669328e-07      -8.29710653e-04 
      -2.28072070e-05      -2.07669328e-07      -8.29710653e-04 
      -2.28072070e-05      -2.07669328e-07      -8.29710653e-04 
      -2.28072070e-05      -2.07669328e-07      -8.29710653e-04 
       2.36223408e-04       2.36754586e-04      -4.69814380e-03 
       2.36223408e-04       2.36754586e-04      -4.69814380e-03 
       2.36223408e-04       2.36754586e-04      -4.69814380e-03 
       2.36223408e-04       2.36754586e-04      -4.69814380e-03 
       1.06708101e-04       1.18273459e-04      -2.76392723e-03 
       1.06708101e-04       1.18273459e-04      -2.76392723e-03 
       1.06708101e-04       1.18273459e-04      -2.76392723e-03 
       1.06708101e-04       1.18273459e-04      -2.76392723e-03 
      -2.28072070e-05      -2.07669328e-07      -8.29710653e-04 
      -2.28072070e-05      -2.07669328e-07      -8.29710653e-04 
      -2.28072070e-05      -2.07669328e-07      -8.29710653e-04 
      -2.28072070e-05      -2.07669328e-07      -8.29710653e-04 
      -2.07979631e-07       2.23913472e-05      -8.29665130e-04 
      -2.07979631e-07       2.23913472e-05      -8.29665130e-04 