# vtk DataFile Version 2.0
./output/Static_Tower/Static_Tower_0010.vtk
ASCII
DATASET UNSTRUCTURED_GRID

POINTS 13260 float
      -4.427464e+00       4.404287e+00      -9.630411e-03 
      -4.400659e+00       4.406972e+00      -9.630411e-03 
      -4.402536e+00       4.425713e+00       9.630411e-03 
      -4.429341e+00       4.423028e+00       9.630411e-03 
      -3.985230e+00      -1.071326e-02       4.329428e+00 
      -3.958425e+00      -8.028246e-03       4.329428e+00 
      -3.960302e+00       1.071324e-02       4.348689e+00 
      -3.987107e+00       8.028226e-03       4.348689e+00 
      -4.413673e+00       4.401748e+00      -1.361946e-02 
      -4.396046e+00       4.416899e+00       0.000000e+00 
      -4.416327e+00       4.428252e+00       1.361946e-02 
      -4.433954e+00       4.413101e+00       0.000000e+00 
      -3.971439e+00      -1.325224e-02       4.325439e+00 
      -3.953812e+00       1.898579e-03       4.339059e+00 
      -3.974094e+00       1.325222e-02       4.352678e+00 
      -3.991720e+00      -1.898599e-03       4.339059e+00 
      -4.206347e+00       2.196787e+00       2.159899e+00 
      -4.179542e+00       2.199472e+00       2.159899e+00 
      -4.181419e+00       2.218213e+00       2.179160e+00 
      -4.208224e+00       2.215528e+00       2.179160e+00 
       4.400662e+00       4.406965e+00      -9.630008e-03 
       4.427469e+00       4.404292e+00      -9.630008e-03 
       4.429338e+00       4.423035e+00       9.630008e-03 
       4.402531e+00       4.425708e+00       9.630008e-03 
       3.960293e+00      -8.034655e-03       4.329619e+00 
       3.987100e+00      -1.070845e-02       4.329619e+00 
       3.988970e+00       8.034634e-03       4.348879e+00 
       3.962163e+00       1.070843e-02       4.348879e+00 
       4.413678e+00       4.401747e+00      -1.361889e-02 
       4.433955e+00       4.413109e+00       0.000000e+00 
       4.416322e+00       4.428253e+00       1.361889e-02 
       4.396045e+00       4.416891e+00       0.000000e+00 
       3.973310e+00      -1.325337e-02       4.325630e+00 
       3.993587e+00      -1.890670e-03       4.339249e+00 
       3.975953e+00       1.325335e-02       4.352867e+00 
       3.955676e+00       1.890649e-03       4.339249e+00 
       4.180478e+00       2.199465e+00       2.159994e+00 
       4.207284e+00       2.196792e+00       2.159994e+00 
       4.209154e+00       2.215535e+00       2.179254e+00 
       4.182347e+00       2.218208e+00       2.179254e+00 
      -4.400659e+00      -4.406972e+00      -9.630411e-03 
      -4.427464e+00      -4.404287e+00      -9.630411e-03 
      -4.429341e+00      -4.423028e+00       9.630411e-03 
      -4.402536e+00      -4.425713e+00       9.630411e-03 
      -3.958425e+00       8.028226e-03       4.329428e+00 
      -3.985230e+00       1.071324e-02       4.329428e+00 
      -3.987107e+00      -8.028246e-03       4.348689e+00 
      -3.960302e+00      -1.071326e-02       4.348689e+00 
      -4.413673e+00      -4.401748e+00      -1.361946e-02 
      -4.433954e+00      -4.413101e+00       0.000000e+00 
      -4.416327e+00      -4.428252e+00       1.361946e-02 
      -4.396046e+00      -4.416899e+00       0.000000e+00 
      -3.971439e+00       1.325222e-02       4.325439e+00 
      -3.991720e+00       1.898579e-03       4.339059e+00 
      -3.974094e+00      -1.325224e-02       4.352678e+00 
      -3.953812e+00      -1.898599e-03       4.339059e+00 
      -4.179542e+00      -2.199472e+00       2.159899e+00 
      -4.206347e+00      -2.196787e+00       2.159899e+00 
      -4.208224e+00      -2.215528e+00       2.179160e+00 
      -4.181419e+00      -2.218213e+00       2.179160e+00 
      -4.406969e+00       4.400661e+00      -9.631169e-03 
      -4.404290e+00       4.427467e+00      -9.631169e-03 
      -4.423031e+00       4.429339e+00       9.631169e-03 
      -4.425710e+00       4.402533e+00       9.631169e-03 
       8.939981e-03       3.959359e+00       4.329522e+00 
       1.161884e-02       3.986165e+00       4.329522e+00 
      -7.121531e-03       3.988038e+00       4.348785e+00 
      -9.800389e-03       3.961232e+00       4.348785e+00 
      -4.401749e+00       4.413676e+00      -1.362053e-02 
      -4.413106e+00       4.433955e+00       0.000000e+00 
      -4.428251e+00       4.416324e+00       1.362053e-02 
      -4.416894e+00       4.396045e+00       0.000000e+00 
       1.416067e-02       3.972374e+00       4.325533e+00 
       2.803463e-03       3.992654e+00       4.339154e+00 
      -1.234222e-02       3.975023e+00       4.352774e+00 
      -9.850134e-04       3.954744e+00       4.339154e+00 
      -2.199015e+00       4.180010e+00       2.159946e+00 
      -2.196336e+00       4.206816e+00       2.159946e+00 
      -2.215076e+00       4.208689e+00       2.179208e+00 
      -2.217755e+00       4.181883e+00       2.179208e+00 
      -4.404290e+00      -4.427467e+00      -9.631169e-03 
      -4.406969e+00      -4.400661e+00      -9.631169e-03 
      -4.425710e+00      -4.402533e+00       9.631169e-03 
      -4.423031e+00      -4.429339e+00       9.631169e-03 
       1.161884e-02      -3.986165e+00       4.329522e+00 
       8.939981e-03      -3.959359e+00       4.329522e+00 
      -9.800389e-03      -3.961232e+00       4.348785e+00 
      -7.121532e-03      -3.988038e+00       4.348785e+00 
      -4.401749e+00      -4.413676e+00      -1.362053e-02 
      -4.416894e+00      -4.396045e+00       0.000000e+00 
      -4.428251e+00      -4.416324e+00       1.362053e-02 
      -4.413106e+00      -4.433955e+00       0.000000e+00 
       1.416067e-02      -3.972375e+00       4.325533e+00 
      -9.850138e-04      -3.954744e+00       4.339154e+00 
      -1.234222e-02      -3.975023e+00       4.352774e+00 
       2.803463e-03      -3.992654e+00       4.339154e+00 
      -2.196336e+00      -4.206816e+00       2.159946e+00 
      -2.199015e+00      -4.180010e+00       2.159946e+00 
      -2.217755e+00      -4.181883e+00       2.179208e+00 
      -2.215076e+00      -4.208689e+00       2.179208e+00 
       4.404288e+00       4.427466e+00      -9.629249e-03 
       4.406968e+00       4.400660e+00      -9.629249e-03 
       4.425712e+00       4.402534e+00       9.629249e-03 
       4.423032e+00       4.429340e+00       9.629249e-03 
      -9.802850e-03       3.986165e+00       4.329524e+00 
      -7.122900e-03       3.959359e+00       4.329524e+00 
       1.162130e-02       3.961233e+00       4.348783e+00 
       8.941350e-03       3.988039e+00       4.348783e+00 
       4.401746e+00       4.413675e+00      -1.361781e-02 
       4.416895e+00       4.396045e+00       0.000000e+00 
       4.428254e+00       4.416325e+00       1.361781e-02 
       4.413105e+00       4.433955e+00       0.000000e+00 
      -1.234493e-02       3.972374e+00       4.325536e+00 
       2.804236e-03       3.954744e+00       4.339154e+00 
       1.416338e-02       3.975024e+00       4.352771e+00 
      -9.857860e-04       3.992654e+00       4.339154e+00 
       2.197243e+00       4.206815e+00       2.159948e+00 
       2.199922e+00       4.180009e+00       2.159948e+00 
       2.218667e+00       4.181883e+00       2.179206e+00 
       2.215987e+00       4.208689e+00       2.179206e+00 
       4.427469e+00      -4.404292e+00      -9.630008e-03 
       4.400662e+00      -4.406965e+00      -9.630008e-03 
       4.402531e+00      -4.425708e+00       9.630008e-03 
       4.429338e+00      -4.423035e+00       9.630008e-03 
       3.987100e+00       1.070843e-02       4.329619e+00 
       3.960293e+00       8.034634e-03       4.329619e+00 
       3.962163e+00      -1.070845e-02       4.348879e+00 
       3.988970e+00      -8.034655e-03       4.348879e+00 
       4.413678e+00      -4.401747e+00      -1.361889e-02 
       4.396045e+00      -4.416891e+00       0.000000e+00 
       4.416322e+00      -4.428253e+00       1.361889e-02 
       4.433955e+00      -4.413109e+00       0.000000e+00 
       3.973310e+00       1.325335e-02       4.325630e+00 
       3.955676e+00      -1.890670e-03       4.339249e+00 
       3.975953e+00      -1.325337e-02       4.352867e+00 
       3.993587e+00       1.890649e-03       4.339249e+00 
       4.207284e+00      -2.196792e+00       2.159994e+00 
       4.180478e+00      -2.199465e+00       2.159994e+00 
       4.182347e+00      -2.218208e+00       2.179254e+00 
       4.209154e+00      -2.215535e+00       2.179254e+00 
       4.406968e+00      -4.400660e+00      -9.629249e-03 
       4.404288e+00      -4.427466e+00      -9.629249e-03 
       4.423032e+00      -4.429340e+00       9.629249e-03 
       4.425712e+00      -4.402534e+00       9.629249e-03 
      -7.122900e-03      -3.959359e+00       4.329524e+00 
      -9.802851e-03      -3.986165e+00       4.329524e+00 
       8.941349e-03      -3.988039e+00       4.348783e+00 
       1.162130e-02      -3.961233e+00       4.348783e+00 
       4.401746e+00      -4.413675e+00      -1.361781e-02 
       4.413105e+00      -4.433955e+00       0.000000e+00 
       4.428254e+00      -4.416325e+00       1.361781e-02 
       4.416895e+00      -4.396045e+00       0.000000e+00 
      -1.234493e-02      -3.972374e+00       4.325536e+00 
      -9.857864e-04      -3.992654e+00       4.339154e+00 
       1.416338e-02      -3.975024e+00       4.352771e+00 
       2.804235e-03      -3.954744e+00       4.339154e+00 
       2.199922e+00      -4.180009e+00       2.159948e+00 
       2.197243e+00      -4.206815e+00       2.159948e+00 
       2.215987e+00      -4.208689e+00       2.179206e+00 
       2.218667e+00      -4.181883e+00       2.179206e+00 
      -4.381888e+00      -4.415213e+00      -3.353767e-03 
      -4.415127e+00      -4.381887e+00      -3.353767e-03 
      -4.448112e+00      -4.414787e+00       3.353767e-03 
      -4.414873e+00      -4.448113e+00       3.353767e-03 
      -3.939411e+00      -3.973880e+00       4.337307e+00 
      -3.972650e+00      -3.940554e+00       4.337307e+00 
      -4.005635e+00      -3.973455e+00       4.344014e+00 
[...]
POINT_DATA     13260 
VECTORS Displacements float
       0.00000000e+00       0.00000000e+00       0.00000000e+00 
       0.00000000e+00       0.00000000e+00       0.00000000e+00 
       0.00000000e+00       0.00000000e+00       0.00000000e+00 
       0.00000000e+00       0.00000000e+00       0.00000000e+00 
       9.33916710e-04      -9.99765560e-09      -1.41152353e-04 
       9.33916710e-04      -9.99765560e-09      -1.41152353e-04 
       9.33916710e-04      -9.99765560e-09      -1.41152353e-04 
       9.33916710e-04      -9.99765560e-09      -1.41152353e-04 
       0.00000000e+00       0.00000000e+00       0.00000000e+00 
       0.00000000e+00       0.00000000e+00       0.00000000e+00 
       0.00000000e+00       0.00000000e+00       0.00000000e+00 
       0.00000000e+00       0.00000000e+00       0.00000000e+00 
       9.33916710e-04      -9.99765560e-09      -1.41152353e-04 
       9.33916710e-04      -9.99765560e-09      -1.41152353e-04 
       9.33916710e-04      -9.99765560e-09      -1.41152353e-04 
       9.33916710e-04      -9.99765560e-09      -1.41152353e-04 
       4.66958355e-04      -4.99882780e-09      -7.05761767e-05 
       4.66958355e-04      -4.99882780e-09      -7.05761767e-05 
       4.66958355e-04      -4.99882780e-09      -7.05761767e-05 
       4.66958355e-04      -4.99882780e-09      -7.05761767e-05 
       0.00000000e+00       0.00000000e+00       0.00000000e+00 
       0.00000000e+00       0.00000000e+00       0.00000000e+00 
       0.00000000e+00       0.00000000e+00       0.00000000e+00 
       0.00000000e+00       0.00000000e+00       0.00000000e+00 
       9.31499241e-04      -1.05797652e-08       4.85346587e-05 
       9.31499241e-04      -1.05797652e-08       4.85346587e-05 
       9.31499241e-04      -1.05797652e-08       4.85346587e-05 
       9.31499241e-04      -1.05797652e-08       4.85346587e-05 
       0.00000000e+00       0.00000000e+00       0.00000000e+00 
       0.00000000e+00       0.00000000e+00       0.00000000e+00 
       0.00000000e+00       0.00000000e+00       0.00000000e+00 
       0.00000000e+00       0.00000000e+00       0.00000000e+00 
       9.31499241e-04      -1.05797652e-08       4.85346587e-05 
       9.31499241e-04      -1.05797652e-08       4.85346587e-05 
       9.31499241e-04      -1.05797652e-08       4.85346587e-05 
       9.31499241e-04      -1.05797652e-08       4.85346587e-05 
       4.65749621e-04      -5.28988259e-09       2.42673294e-05 
       4.65749621e-04      -5.28988259e-09       2.42673294e-05 
       4.65749621e-04      -5.28988259e-09       2.42673294e-05 
       4.65749621e-04      -5.28988259e-09       2.42673294e-05 
       0.00000000e+00       0.00000000e+00       0.00000000e+00 
       0.00000000e+00       0.00000000e+00       0.00000000e+00 
       0.00000000e+00       0.00000000e+00       0.00000000e+00 
       0.00000000e+00       0.00000000e+00       0.00000000e+00 
       9.33916710e-04      -9.99765560e-09      -1.41152353e-04 
       9.33916710e-04      -9.99765560e-09      -1.41152353e-04 
       9.33916710e-04      -9.99765560e-09      -1.41152353e-04 
       9.33916710e-04      -9.99765560e-09      -1.41152353e-04 
       0.00000000e+00       0.00000000e+00       0.00000000e+00 
       0.00000000e+00       0.00000000e+00       0.00000000e+00 
       0.00000000e+00       0.00000000e+00       0.00000000e+00 
       0.00000000e+00       0.00000000e+00       0.00000000e+00 
       9.33916710e-04      -9.99765560e-09      -1.41152353e-04 
       9.33916710e-04      -9.99765560e-09      -1.41152353e-04 
       9.33916710e-04      -9.99765560e-09      -1.41152353e-04 
       9.33916710e-04      -9.99765560e-09      -1.41152353e-04 
       4.66958355e-04      -4.99882780e-09      -7.05761767e-05 
       4.66958355e-04      -4.99882780e-09      -7.05761767e-05 
       4.66958355e-04      -4.99882780e-09      -7.05761767e-05 
       4.66958355e-04      -4.99882780e-09      -7.05761767e-05 
       0.00000000e+00       0.00000000e+00       0.00000000e+00 
       0.00000000e+00       0.00000000e+00       0.00000000e+00 
       0.00000000e+00       0.00000000e+00       0.00000000e+00 
       0.00000000e+00       0.00000000e+00       0.00000000e+00 
       9.09224990e-04      -1.23691571e-06      -4.64688753e-05 
       9.09224990e-04      -1.23691571e-06      -4.64688753e-05 
       9.09224990e-04      -1.23691571e-06      -4.64688753e-05 
       9.09224990e-04      -1.23691571e-06      -4.64688753e-05 
       0.00000000e+00       0.00000000e+00       0.00000000e+00 
       0.00000000e+00       0.00000000e+00       0.00000000e+00 
       0.00000000e+00       0.00000000e+00       0.00000000e+00 
       0.00000000e+00       0.00000000e+00       0.00000000e+00 
       9.09224990e-04      -1.23691571e-06      -4.64688753e-05 
       9.09224990e-04      -1.23691571e-06      -4.64688753e-05 
       9.09224990e-04      -1.23691571e-06      -4.64688753e-05 
       9.09224990e-04      -1.23691571e-06      -4.64688753e-05 
       4.54612495e-04      -6.18457853e-07      -2.32344376e-05 
       4.54612495e-04      -6.18457853e-07      -2.32344376e-05 
       4.54612495e-04      -6.18457853e-07      -2.32344376e-05 
       4.54612495e-04      -6.18457853e-07      -2.32344376e-05 
       0.00000000e+00       0.00000000e+00       0.00000000e+00 
       0.00000000e+00       0.00000000e+00       0.00000000e+00 
       0.00000000e+00       0.00000000e+00       0.00000000e+00 
       0.00000000e+00       0.00000000e+00       0.00000000e+00 
       9.09224503e-04       1.21633784e-06      -4.64667820e-05 
       9.09224503e-04       1.21633784e-06      -4.64667820e-05 
       9.09224503e-04       1.21633784e-06      -4.64667820e-05 
       9.09224503e-04       1.21633784e-06      -4.64667820e-05 
       0.00000000e+00       0.00000000e+00       0.00000000e+00 
       0.00000000e+00       0.00000000e+00       0.00000000e+00 
       0.00000000e+00       0.00000000e+00       0.00000000e+00 
       0.00000000e+00       0.00000000e+00       0.00000000e+00 
       9.09224503e-04       1.21633784e-06      -4.64667820e-05 
       9.09224503e-04       1.21633784e-06      -4.64667820e-05 
       9.09224503e-04       1.21633784e-06      -4.64667820e-05 
       9.09224503e-04       1.21633784e-06      -4.64667820e-05 
       4.54612251e-04       6.08168922e-07      -2.32333910e-05 
       4.54612251e-04       6.08168922e-07      -2.32333910e-05 
       4.54612251e-04       6.08168922e-07      -2.32333910e-05 
       4.54612251e-04       6.08168922e-07      -2.32333910e-05 
       0.00000000e+00       0.00000000e+00       0.00000000e+00 
       0.00000000e+00       0.00000000e+00       0.00000000e+00 
       0.00000000e+00       0.00000000e+00       0.00000000e+00 
       0.00000000e+00       0.00000000e+00       0.00000000e+00 
       9.09224990e-04      -1.23691571e-06      -4.64688753e-05 
       9.09224990e-04      -1.23691571e-06      -4.64688753e-05 
       9.09224990e-04      -1.23691571e-06      -4.64688753e-05 
       9.09224990e-04      -1.23691571e-06      -4.64688753e-05 
       0.00000000e+00       0.00000000e+00       0.00000000e+00 
       0.00000000e+00       0.00000000e+00       0.00000000e+00 
       0.00000000e+00       0.00000000e+00       0.00000000e+00 
       0.00000000e+00       0.00000000e+00       0.00000000e+00 
       9.09224990e-04      -1.23691571e-06      -4.64688753e-05 
       9.09224990e-04      -1.23691571e-06      -4.64688753e-05 
       9.09224990e-04      -1.23691571e-06      -4.64688753e-05 
       9.09224990e-04      -1.23691571e-06      -4.64688753e-05 
       4.54612495e-04      -6.18457853e-07      -2.32344376e-05 
       4.54612495e-04      -6.18457853e-07      -2.32344376e-05 
       4.54612495e-04      -6.18457853e-07      -2.32344376e-05 
       4.54612495e-04      -6.18457853e-07      -2.32344376e-05 
       0.00000000e+00       0.00000000e+00       0.00000000e+00 
       0.00000000e+00       0.00000000e+00       0.00000000e+00 
       0.00000000e+00       0.00000000e+00       0.00000000e+00 
       0.00000000e+00       0.00000000e+00       0.00000000e+00 
       9.31499241e-04      -1.05797652e-08       4.85346587e-05 
       9.31499241e-04      -1.05797652e-08       4.85346587e-05 
       9.31499241e-04      -1.05797652e-08       4.85346587e-05 
       9.31499241e-04      -1.05797652e-08       4.85346587e-05 
       0.00000000e+00       0.00000000e+00       0.00000000e+00 
       0.00000000e+00       0.00000000e+00       0.00000000e+00 
       0.00000000e+00       0.00000000e+00       0.00000000e+00 
       0.00000000e+00       0.00000000e+00       0.00000000e+00 
       9.31499241e-04      -1.05797652e-08       4.85346587e-05 
       9.31499241e-04      -1.05797652e-08       4.85346587e-05 
       9.31499241e-04      -1.05797652e-08       4.85346587e-05 
       9.31499241e-04      -1.05797652e-08       4.85346587e-05 
       4.65749621e-04      -5.28988259e-09       2.42673294e-05 
       4.65749621e-04      -5.28988259e-09       2.42673294e-05 
       4.65749621e-04      -5.28988259e-09       2.42673294e-05 
       4.65749621e-04      -5.28988259e-09       2.42673294e-05 
       0.00000000e+00       0.00000000e+00       0.00000000e+00 
       0.00000000e+00       0.00000000e+00       0.00000000e+00 
       0.00000000e+00       0.00000000e+00       0.00000000e+00 
       0.00000000e+00       0.00000000e+00       0.00000000e+00 
       9.09224503e-04       1.21633784e-06      -4.64667820e-05 
       9.09224503e-04       1.21633784e-06      -4.64667820e-05 
       9.09224503e-04       1.21633784e-06      -4.64667820e-05 
       9.09224503e-04       1.21633784e-06      -4.64667820e-05 
       0.00000000e+00       0.00000000e+00       0.00000000e+00 
       0.00000000e+00       0.00000000e+00       0.00000000e+00 
       0.00000000e+00       0.00000000e+00       0.00000000e+00 
       0.00000000e+00       0.00000000e+00       0.00000000e+00 
       9.09224503e-04       1.21633784e-06      -4.64667820e-05 
       9.09224503e-04       1.21633784e-06      -4.64667820e-05 
       9.09224503e-04       1.21633784e-06      -4.64667820e-05 
       9.09224503e-04       1.21633784e-06      -4.64667820e-05 
       4.54612251e-04       6.08168922e-07      -2.32333910e-05 
       4.54612251e-04       6.08168922e-07      -2.32333910e-05 
       4.54612251e-04       6.08168922e-07      -2.32333910e-05 
       4.54612251e-04       6.08168922e-07      -2.32333910e-05 
       0.00000000e+00       0.00000000e+00       0.00000000e+00 
       0.00000000e+00       0.00000000e+00       0.00000000e+00 
       0.00000000e+00       0.00000000e+00       0.00000000e+00 
       0.00000000e+00       0.00000000e+00       0.00000000e+00 
       1.17701479e-03       3.27802923e-05       1.46047941e-03 
       1.17701479e-03       3.27802923e-05       1.46047941e-03 
       1.17701479e-03       3.27802923e-05       1.46047941e-03 
       1.17701479e-03       3.27802923e-05       1.46047941e-03 
       0.00000000e+00       0.00000000e+00       0.00000000e+00 
       0.00000000e+00       0.00000000e+00       0.00000000e+00 
       0.00000000e+00       0.00000000e+00       0.00000000e+00 
       0.00000000e+00       0.00000000e+00       0.00000000e+00 
       1.17701479e-03       3.27802923e-05       1.46047941e-03 
       1.17701479e-03       3.27802923e-05       1.46047941e-03 
       1.17701479e-03       3.27802923e-05       1.46047941e-03 
       1.17701479e-03       3.27802923e-05       1.46047941e-03 
       5.88507396e-04       1.63901461e-05       7.30239703e-04 
       5.88507396e-04       1.63901461e-05       7.30239703e-04 
       5.88507396e-04       1.63901461e-05       7.30239703e-04 
       5.88507396e-04       1.63901461e-05       7.30239703e-04 
       0.00000000e+00       0.00000000e+00       0.00000000e+00 
       0.00000000e+00       0.00000000e+00       0.00000000e+00 
       0.00000000e+00       0.00000000e+00       0.00000000e+00 
       0.00000000e+00       0.00000000e+00       0.00000000e+00 
       1.19738038e-03      -4.89068250e-05      -1.81241570e-03 
       1.19738038e-03      -4.89068250e-05      -1.81241570e-03 
       1.19738038e-03      -4.89068250e-05      -1.81241570e-03 
       1.19738038e-03      -4.89068250e-05      -1.81241570e-03 
       0.00000000e+00       0.00000000e+00       0.00000000e+00 
       0.00000000e+00       0.00000000e+00       0.00000000e+00 
       0.00000000e+00       0.00000000e+00       0.00000000e+00 
       0.00000000e+00       0.00000000e+00       0.00000000e+00 
       1.19738038e-03      -4.89068250e-05      -1.81241570e-03 
       1.19738038e-03      -4.89068250e-05      -1.81241570e-03 
       1.19738038e-03      -4.89068250e-05      -1.81241570e-03 
       1.19738038e-03      -4.89068250e-05      -1.81241570e-03 
       5.98690191e-04      -2.44534125e-05      -9.06207852e-04 
       5.98690191e-04      -2.44534125e-05      -9.06207852e-04 
       5.98690191e-04      -2.44534125e-05      -9.06207852e-04 
       5.98690191e-04      -2.44534125e-05      -9.06207852e-04 
       0.00000000e+00       0.00000000e+00       0.00000000e+00 
       0.00000000e+00       0.00000000e+00       0.00000000e+00 
       0.00000000e+00       0.00000000e+00       0.00000000e+00 
       0.00000000e+00       0.00000000e+00       0.00000000e+00 
       1.19738221e-03       4.88787627e-05      -1.81244259e-03 
       1.19738221e-03       4.88787627e-05      -1.81244259e-03 
       1.19738221e-03       4.88787627e-05      -1.81244259e-03 
       1.19738221e-03       4.88787627e-05      -1.81244259e-03 
       0.00000000e+00       0.00000000e+00       0.00000000e+00 
       0.00000000e+00       0.00000000e+00       0.00000000e+00 
       0.00000000e+00       0.00000000e+00       0.00000000e+00 
       0.00000000e+00       0.00000000e+00       0.00000000e+00 
       1.19738221e-03       4.88787627e-05      -1.81244259e-03 
       1.19738221e-03       4.88787627e-05      -1.81244259e-03 
       1.19738221e-03       4.88787627e-05      -1.81244259e-03 
       1.19738221e-03       4.88787627e-05      -1.81244259e-03 
       5.98691103e-04       2.44393813e-05      -9.06221293e-04 
       5.98691103e-04       2.44393813e-05      -9.06221293e-04 
       5.98691103e-04       2.44393813e-05      -9.06221293e-04 
       5.98691103e-04       2.44393813e-05      -9.06221293e-04 
       0.00000000e+00       0.00000000e+00       0.00000000e+00 
       0.00000000e+00       0.00000000e+00       0.00000000e+00 
       0.00000000e+00       0.00000000e+00       0.00000000e+00 
       0.00000000e+00       0.00000000e+00       0.00000000e+00 
       1.17701417e-03      -3.28067223e-05       1.46045265e-03 
       1.17701417e-03      -3.28067223e-05       1.46045265e-03 
       1.17701417e-03      -3.28067223e-05       1.46045265e-03 
       1.17701417e-03      -3.28067223e-05       1.46045265e-03 
       0.00000000e+00       0.00000000e+00       0.00000000e+00 
       0.00000000e+00       0.00000000e+00       0.00000000e+00 
       0.00000000e+00       0.00000000e+00       0.00000000e+00 
       0.00000000e+00       0.00000000e+00       0.00000000e+00 
       1.17701417e-03      -3.28067223e-05       1.46045265e-03 
       1.17701417e-03      -3.28067223e-05       1.46045265e-03 
       1.17701417e-03      -3.28067223e-05       1.46045265e-03 
       1.17701417e-03      -3.28067223e-05       1.46045265e-03 
       5.88507085e-04      -1.64033612e-05       7.30226327e-04 
       5.88507085e-04      -1.64033612e-05       7.30226327e-04 
       5.88507085e-04      -1.64033612e-05       7.30226327e-04 
       5.88507085e-04      -1.64033612e-05       7.30226327e-04 
       9.33916710e-04      -9.99765560e-09      -1.41152353e-04 
       9.33916710e-04      -9.99765560e-09      -1.41152353e-04 
       9.33916710e-04      -9.99765560e-09      -1.41152353e-04 
       9.33916710e-04      -9.99765560e-09      -1.41152353e-04 
       1.17701417e-03      -3.28067223e-05       1.46045265e-03 
       1.17701417e-03      -3.28067223e-05       1.46045265e-03 
       1.17701417e-03      -3.28067223e-05       1.46045265e-03 
       1.17701417e-03      -3.28067223e-05       1.46045265e-03 
       9.33916710e-04      -9.99765560e-09      -1.41152353e-04 
       9.33916710e-04      -9.99765560e-09      -1.41152353e-04 
       9.33916710e-04      -9.99765560e-09      -1.41152353e-04 
       9.33916710e-04      -9.99765560e-09      -1.41152353e-04 
       1.17701417e-03      -3.28067223e-05       1.46045265e-03 
       1.17701417e-03      -3.28067223e-05       1.46045265e-03 
       1.17701417e-03      -3.28067223e-05       1.46045265e-03 
       1.17701417e-03      -3.28067223e-05       1.46045265e-03 
       1.05546544e-03      -1.64083600e-05       6.59650151e-04 
       1.05546544e-03      -1.64083600e-05       6.59650151e-04 
       1.05546544e-03      -1.64083600e-05       6.59650151e-04 
       1.05546544e-03      -1.64083600e-05       6.59650151e-04 
       9.33916710e-04      -9.99765560e-09      -1.41152353e-04 
       9.33916710e-04      -9.99765560e-09      -1.41152353e-04 
       9.33916710e-04      -9.99765560e-09      -1.41152353e-04 
       9.33916710e-04      -9.99765560e-09      -1.41152353e-04 
       1.17701479e-03       3.27802923e-05       1.46047941e-03 
       1.17701479e-03       3.27802923e-05       1.46047941e-03 
       1.17701479e-03       3.27802923e-05       1.46047941e-03 
       1.17701479e-03       3.27802923e-05       1.46047941e-03 
       9.33916710e-04      -9.99765560e-09      -1.41152353e-04 
       9.33916710e-04      -9.99765560e-09      -1.41152353e-04 
       9.33916710e-04      -9.99765560e-09      -1.41152353e-04 
       9.33916710e-04      -9.99765560e-09      -1.41152353e-04 
       1.17701479e-03       3.27802923e-05       1.46047941e-03 
       1.17701479e-03       3.27802923e-05       1.46047941e-03 
       1.17701479e-03       3.27802923e-05       1.46047941e-03 
       1.17701479e-03       3.27802923e-05       1.46047941e-03 
       1.05546575e-03       1.63851473e-05       6.59663526e-04 
       1.05546575e-03       1.63851473e-05       6.59663526e-04 
       1.05546575e-03       1.63851473e-05       6.59663526e-04 
       1.05546575e-03       1.63851473e-05       6.59663526e-04 
       9.31499241e-04      -1.05797652e-08       4.85346587e-05 
       9.31499241e-04      -1.05797652e-08       4.85346587e-05 
       9.31499241e-04      -1.05797652e-08       4.85346587e-05 
       9.31499241e-04      -1.05797652e-08       4.85346587e-05 
       1.19738221e-03       4.88787627e-05      -1.81244259e-03 
       1.19738221e-03       4.88787627e-05      -1.81244259e-03 
       1.19738221e-03       4.88787627e-05      -1.81244259e-03 
       1.19738221e-03       4.88787627e-05      -1.81244259e-03 
       9.31499241e-04      -1.05797652e-08       4.85346587e-05 
       9.31499241e-04      -1.05797652e-08       4.85346587e-05 
       9.31499241e-04      -1.05797652e-08       4.85346587e-05 
       9.31499241e-04      -1.05797652e-08       4.85346587e-05 
       1.19738221e-03       4.88787627e-05      -1.81244259e-03 
       1.19738221e-03       4.88787627e-05      -1.81244259e-03 
       1.19738221e-03       4.88787627e-05      -1.81244259e-03 
       1.19738221e-03       4.88787627e-05      -1.81244259e-03 
       1.06444072e-03       2.44340915e-05      -8.81953963e-04 
       1.06444072e-03       2.44340915e-05      -8.81953963e-04 
       1.06444072e-03       2.44340915e-05      -8.81953963e-04 
       1.06444072e-03       2.44340915e-05      -8.81953963e-04 
       9.31499241e-04      -1.05797652e-08       4.85346587e-05 
       9.31499241e-04      -1.05797652e-08       4.85346587e-05 
       9.31499241e-04      -1.05797652e-08       4.85346587e-05 
       9.31499241e-04      -1.05797652e-08       4.85346587e-05 
       9.09224503e-04       1.21633784e-06      -4.64667820e-05 
       9.09224503e-04       1.21633784e-06      -4.64667820e-05 