# vtk DataFile Version 2.0
./output/Static_Tower/Static_Tower_0001.vtk
ASCII
DATASET UNSTRUCTURED_GRID

POINTS 13260 float
      -4.427466e+00       4.404289e+00      -9.630229e-03 
      -4.400660e+00       4.406969e+00      -9.630229e-03 
      -4.402534e+00       4.425711e+00       9.630229e-03 
      -4.429340e+00       4.423031e+00       9.630229e-03 
      -3.986072e+00      -1.071110e-02       4.329514e+00 
      -3.959266e+00      -8.031131e-03       4.329514e+00 
      -3.961139e+00       1.071107e-02       4.348775e+00 
      -3.987945e+00       8.031110e-03       4.348775e+00 
      -4.413675e+00       4.401747e+00      -1.361920e-02 
      -4.396045e+00       4.416895e+00       0.000000e+00 
      -4.416325e+00       4.428253e+00       1.361920e-02 
      -4.433955e+00       4.413105e+00       0.000000e+00 
      -3.972281e+00      -1.325275e-02       4.325525e+00 
      -3.954651e+00       1.895011e-03       4.339144e+00 
      -3.974930e+00       1.325273e-02       4.352764e+00 
      -3.992560e+00      -1.895031e-03       4.339144e+00 
      -4.206769e+00       2.196789e+00       2.159942e+00 
      -4.179963e+00       2.199469e+00       2.159942e+00 
      -4.181837e+00       2.218211e+00       2.179202e+00 
      -4.208643e+00       2.215531e+00       2.179202e+00 
       4.400660e+00       4.406968e+00      -9.630189e-03 
       4.427467e+00       4.404289e+00      -9.630189e-03 
       4.429340e+00       4.423032e+00       9.630189e-03 
       4.402533e+00       4.425711e+00       9.630189e-03 
       3.959452e+00      -8.031772e-03       4.329533e+00 
       3.986259e+00      -1.071061e-02       4.329533e+00 
       3.988132e+00       8.031751e-03       4.348794e+00 
       3.961325e+00       1.071059e-02       4.348794e+00 
       4.413676e+00       4.401747e+00      -1.361914e-02 
       4.433955e+00       4.413106e+00       0.000000e+00 
       4.416324e+00       4.428253e+00       1.361914e-02 
       4.396045e+00       4.416894e+00       0.000000e+00 
       3.972468e+00      -1.325286e-02       4.325544e+00 
       3.992747e+00      -1.894238e-03       4.339163e+00 
       3.975116e+00       1.325284e-02       4.352782e+00 
       3.954837e+00       1.894218e-03       4.339163e+00 
       4.180056e+00       2.199468e+00       2.159951e+00 
       4.206863e+00       2.196789e+00       2.159951e+00 
       4.208736e+00       2.215532e+00       2.179212e+00 
       4.181929e+00       2.218211e+00       2.179212e+00 
      -4.400660e+00      -4.406969e+00      -9.630229e-03 
      -4.427466e+00      -4.404289e+00      -9.630229e-03 
      -4.429340e+00      -4.423031e+00       9.630229e-03 
      -4.402534e+00      -4.425711e+00       9.630229e-03 
      -3.959266e+00       8.031110e-03       4.329514e+00 
      -3.986072e+00       1.071107e-02       4.329514e+00 
      -3.987945e+00      -8.031131e-03       4.348775e+00 
      -3.961139e+00      -1.071110e-02       4.348775e+00 
      -4.413675e+00      -4.401747e+00      -1.361920e-02 
      -4.433955e+00      -4.413105e+00       0.000000e+00 
      -4.416325e+00      -4.428253e+00       1.361920e-02 
      -4.396045e+00      -4.416895e+00       0.000000e+00 
      -3.972281e+00       1.325273e-02       4.325525e+00 
      -3.992560e+00       1.895011e-03       4.339144e+00 
      -3.974930e+00      -1.325275e-02       4.352764e+00 
      -3.954651e+00      -1.895031e-03       4.339144e+00 
      -4.179963e+00      -2.199469e+00       2.159942e+00 
      -4.206769e+00      -2.196789e+00       2.159942e+00 
      -4.208643e+00      -2.215531e+00       2.179202e+00 
      -4.181837e+00      -2.218211e+00       2.179202e+00 
      -4.406969e+00       4.400660e+00      -9.630305e-03 
      -4.404289e+00       4.427466e+00      -9.630305e-03 
      -4.423031e+00       4.429340e+00       9.630305e-03 
      -4.425711e+00       4.402534e+00       9.630305e-03 
       8.122286e-03       3.959359e+00       4.329524e+00 
       1.080163e-02       3.986165e+00       4.329524e+00 
      -7.940459e-03       3.988038e+00       4.348784e+00 
      -1.061981e-02       3.961232e+00       4.348784e+00 
      -4.401747e+00       4.413675e+00      -1.361931e-02 
      -4.413105e+00       4.433955e+00       0.000000e+00 
      -4.428253e+00       4.416325e+00       1.361931e-02 
      -4.416895e+00       4.396045e+00       0.000000e+00 
       1.334357e-02       3.972374e+00       4.325535e+00 
       1.985499e-03       3.992654e+00       4.339154e+00 
      -1.316175e-02       3.975023e+00       4.352773e+00 
      -1.803673e-03       3.954744e+00       4.339154e+00 
      -2.199423e+00       4.180010e+00       2.159947e+00 
      -2.196744e+00       4.206816e+00       2.159947e+00 
      -2.215486e+00       4.208689e+00       2.179207e+00 
      -2.218165e+00       4.181883e+00       2.179207e+00 
      -4.404289e+00      -4.427466e+00      -9.630305e-03 
      -4.406969e+00      -4.400660e+00      -9.630305e-03 
      -4.425711e+00      -4.402534e+00       9.630305e-03 
      -4.423031e+00      -4.429340e+00       9.630305e-03 
       1.080163e-02      -3.986165e+00       4.329524e+00 
       8.122286e-03      -3.959359e+00       4.329524e+00 
      -1.061981e-02      -3.961232e+00       4.348784e+00 
      -7.940459e-03      -3.988039e+00       4.348784e+00 
      -4.401747e+00      -4.413675e+00      -1.361931e-02 
      -4.416895e+00      -4.396045e+00       0.000000e+00 
      -4.428253e+00      -4.416325e+00       1.361931e-02 
      -4.413105e+00      -4.433955e+00       0.000000e+00 
       1.334357e-02      -3.972374e+00       4.325535e+00 
      -1.803673e-03      -3.954744e+00       4.339154e+00 
      -1.316175e-02      -3.975023e+00       4.352773e+00 
       1.985499e-03      -3.992654e+00       4.339154e+00 
      -2.196744e+00      -4.206816e+00       2.159947e+00 
      -2.199423e+00      -4.180010e+00       2.159947e+00 
      -2.218165e+00      -4.181883e+00       2.179207e+00 
      -2.215486e+00      -4.208689e+00       2.179207e+00 
       4.404289e+00       4.427466e+00      -9.630113e-03 
       4.406968e+00       4.400660e+00      -9.630113e-03 
       4.425711e+00       4.402534e+00       9.630113e-03 
       4.423032e+00       4.429340e+00       9.630113e-03 
      -1.062005e-02       3.986165e+00       4.329524e+00 
      -7.940596e-03       3.959359e+00       4.329524e+00 
       1.080188e-02       3.961232e+00       4.348784e+00 
       8.122423e-03       3.988039e+00       4.348784e+00 
       4.401747e+00       4.413675e+00      -1.361904e-02 
       4.416895e+00       4.396045e+00       0.000000e+00 
       4.428253e+00       4.416325e+00       1.361904e-02 
       4.413105e+00       4.433955e+00       0.000000e+00 
      -1.316202e-02       3.972374e+00       4.325535e+00 
       1.985576e-03       3.954744e+00       4.339154e+00 
       1.334385e-02       3.975023e+00       4.352773e+00 
      -1.803750e-03       3.992654e+00       4.339154e+00 
       2.196834e+00       4.206816e+00       2.159947e+00 
       2.199514e+00       4.180010e+00       2.159947e+00 
       2.218256e+00       4.181883e+00       2.179207e+00 
       2.215577e+00       4.208689e+00       2.179207e+00 
       4.427467e+00      -4.404289e+00      -9.630189e-03 
       4.400660e+00      -4.406968e+00      -9.630189e-03 
       4.402533e+00      -4.425711e+00       9.630189e-03 
       4.429340e+00      -4.423032e+00       9.630189e-03 
       3.986259e+00       1.071059e-02       4.329533e+00 
       3.959452e+00       8.031751e-03       4.329533e+00 
       3.961325e+00      -1.071061e-02       4.348794e+00 
       3.988132e+00      -8.031772e-03       4.348794e+00 
       4.413676e+00      -4.401747e+00      -1.361914e-02 
       4.396045e+00      -4.416894e+00       0.000000e+00 
       4.416324e+00      -4.428253e+00       1.361914e-02 
       4.433955e+00      -4.413106e+00       0.000000e+00 
       3.972468e+00       1.325284e-02       4.325544e+00 
       3.954837e+00      -1.894238e-03       4.339163e+00 
       3.975116e+00      -1.325286e-02       4.352782e+00 
       3.992747e+00       1.894218e-03       4.339163e+00 
       4.206863e+00      -2.196789e+00       2.159951e+00 
       4.180056e+00      -2.199468e+00       2.159951e+00 
       4.181929e+00      -2.218211e+00       2.179212e+00 
       4.208736e+00      -2.215532e+00       2.179212e+00 
       4.406968e+00      -4.400660e+00      -9.630113e-03 
       4.404289e+00      -4.427466e+00      -9.630113e-03 
       4.423032e+00      -4.429340e+00       9.630113e-03 
       4.425711e+00      -4.402534e+00       9.630113e-03 
      -7.940596e-03      -3.959359e+00       4.329524e+00 
      -1.062005e-02      -3.986165e+00       4.329524e+00 
       8.122423e-03      -3.988039e+00       4.348784e+00 
       1.080188e-02      -3.961232e+00       4.348784e+00 
       4.401747e+00      -4.413675e+00      -1.361904e-02 
       4.413105e+00      -4.433955e+00       0.000000e+00 
       4.428253e+00      -4.416325e+00       1.361904e-02 
       4.416895e+00      -4.396045e+00       0.000000e+00 
      -1.316202e-02      -3.972374e+00       4.325535e+00 
      -1.803750e-03      -3.992654e+00       4.339154e+00 
       1.334385e-02      -3.975024e+00       4.352773e+00 
       1.985576e-03      -3.954744e+00       4.339154e+00 
       2.199514e+00      -4.180010e+00       2.159947e+00 
       2.196834e+00      -4.206816e+00       2.159947e+00 
       2.215577e+00      -4.208689e+00       2.179207e+00 
       2.218256e+00      -4.181883e+00       2.179207e+00 
      -4.381887e+00      -4.415174e+00      -3.350747e-03 
      -4.415165e+00      -4.381887e+00      -3.350747e-03 
      -4.448113e+00      -4.414826e+00       3.350747e-03 
      -4.414835e+00      -4.448113e+00       3.350747e-03 
      -3.940480e+00      -3.973882e+00       4.335838e+00 
      -3.973758e+00      -3.940595e+00       4.335838e+00 
      -4.006706e+00      -3.973534e+00       4.342539e+00 
[...]
POINT_DATA     13260 
VECTORS Displacements float
       0.00000000e+00       0.00000000e+00       0.00000000e+00 
       0.00000000e+00       0.00000000e+00       0.00000000e+00 
       0.00000000e+00       0.00000000e+00       0.00000000e+00 
       0.00000000e+00       0.00000000e+00       0.00000000e+00 
       9.44753060e-05      -1.02576494e-08      -5.56353817e-05 
       9.44753060e-05      -1.02576494e-08      -5.56353817e-05 
       9.44753060e-05      -1.02576494e-08      -5.56353817e-05 
       9.44753060e-05      -1.02576494e-08      -5.56353817e-05 
       0.00000000e+00       0.00000000e+00       0.00000000e+00 
       0.00000000e+00       0.00000000e+00       0.00000000e+00 
       0.00000000e+00       0.00000000e+00       0.00000000e+00 
       0.00000000e+00       0.00000000e+00       0.00000000e+00 
       9.44753060e-05      -1.02576494e-08      -5.56353817e-05 
       9.44753060e-05      -1.02576494e-08      -5.56353817e-05 
       9.44753060e-05      -1.02576494e-08      -5.56353817e-05 
       9.44753060e-05      -1.02576494e-08      -5.56353817e-05 
       4.72376530e-05      -5.12882472e-09      -2.78176909e-05 
       4.72376530e-05      -5.12882472e-09      -2.78176909e-05 
       4.72376530e-05      -5.12882472e-09      -2.78176909e-05 
       4.72376530e-05      -5.12882472e-09      -2.78176909e-05 
       0.00000000e+00       0.00000000e+00       0.00000000e+00 
       0.00000000e+00       0.00000000e+00       0.00000000e+00 
       0.00000000e+00       0.00000000e+00       0.00000000e+00 
       0.00000000e+00       0.00000000e+00       0.00000000e+00 
       9.20478197e-05      -1.03175094e-08      -3.66695705e-05 
       9.20478197e-05      -1.03175094e-08      -3.66695705e-05 
       9.20478197e-05      -1.03175094e-08      -3.66695705e-05 
       9.20478197e-05      -1.03175094e-08      -3.66695705e-05 
       0.00000000e+00       0.00000000e+00       0.00000000e+00 
       0.00000000e+00       0.00000000e+00       0.00000000e+00 
       0.00000000e+00       0.00000000e+00       0.00000000e+00 
       0.00000000e+00       0.00000000e+00       0.00000000e+00 
       9.20478197e-05      -1.03175094e-08      -3.66695705e-05 
       9.20478197e-05      -1.03175094e-08      -3.66695705e-05 
       9.20478197e-05      -1.03175094e-08      -3.66695705e-05 
       9.20478197e-05      -1.03175094e-08      -3.66695705e-05 
       4.60239099e-05      -5.15875472e-09      -1.83347852e-05 
       4.60239099e-05      -5.15875472e-09      -1.83347852e-05 
       4.60239099e-05      -5.15875472e-09      -1.83347852e-05 
       4.60239099e-05      -5.15875472e-09      -1.83347852e-05 
       0.00000000e+00       0.00000000e+00       0.00000000e+00 
       0.00000000e+00       0.00000000e+00       0.00000000e+00 
       0.00000000e+00       0.00000000e+00       0.00000000e+00 
       0.00000000e+00       0.00000000e+00       0.00000000e+00 
       9.44753060e-05      -1.02576494e-08      -5.56353817e-05 
       9.44753060e-05      -1.02576494e-08      -5.56353817e-05 
       9.44753060e-05      -1.02576494e-08      -5.56353817e-05 
       9.44753060e-05      -1.02576494e-08      -5.56353817e-05 
       0.00000000e+00       0.00000000e+00       0.00000000e+00 
       0.00000000e+00       0.00000000e+00       0.00000000e+00 
       0.00000000e+00       0.00000000e+00       0.00000000e+00 
       0.00000000e+00       0.00000000e+00       0.00000000e+00 
       9.44753060e-05      -1.02576494e-08      -5.56353817e-05 
       9.44753060e-05      -1.02576494e-08      -5.56353817e-05 
       9.44753060e-05      -1.02576494e-08      -5.56353817e-05 
       9.44753060e-05      -1.02576494e-08      -5.56353817e-05 
       4.72376530e-05      -5.12882472e-09      -2.78176909e-05 
       4.72376530e-05      -5.12882472e-09      -2.78176909e-05 
       4.72376530e-05      -5.12882472e-09      -2.78176909e-05 
       4.72376530e-05      -5.12882472e-09      -2.78176909e-05 
       0.00000000e+00       0.00000000e+00       0.00000000e+00 
       0.00000000e+00       0.00000000e+00       0.00000000e+00 
       0.00000000e+00       0.00000000e+00       0.00000000e+00 
       0.00000000e+00       0.00000000e+00       0.00000000e+00 
       9.09132405e-05      -1.22420886e-06      -4.61550966e-05 
       9.09132405e-05      -1.22420886e-06      -4.61550966e-05 
       9.09132405e-05      -1.22420886e-06      -4.61550966e-05 
       9.09132405e-05      -1.22420886e-06      -4.61550966e-05 
       0.00000000e+00       0.00000000e+00       0.00000000e+00 
       0.00000000e+00       0.00000000e+00       0.00000000e+00 
       0.00000000e+00       0.00000000e+00       0.00000000e+00 
       0.00000000e+00       0.00000000e+00       0.00000000e+00 
       9.09132405e-05      -1.22420886e-06      -4.61550966e-05 
       9.09132405e-05      -1.22420886e-06      -4.61550966e-05 
       9.09132405e-05      -1.22420886e-06      -4.61550966e-05 
       9.09132405e-05      -1.22420886e-06      -4.61550966e-05 
       4.54566202e-05      -6.12104429e-07      -2.30775483e-05 
       4.54566202e-05      -6.12104429e-07      -2.30775483e-05 
       4.54566202e-05      -6.12104429e-07      -2.30775483e-05 
       4.54566202e-05      -6.12104429e-07      -2.30775483e-05 
       0.00000000e+00       0.00000000e+00       0.00000000e+00 
       0.00000000e+00       0.00000000e+00       0.00000000e+00 
       0.00000000e+00       0.00000000e+00       0.00000000e+00 
       0.00000000e+00       0.00000000e+00       0.00000000e+00 
       9.09131899e-05       1.20363342e-06      -4.61530036e-05 
       9.09131899e-05       1.20363342e-06      -4.61530036e-05 
       9.09131899e-05       1.20363342e-06      -4.61530036e-05 
       9.09131899e-05       1.20363342e-06      -4.61530036e-05 
       0.00000000e+00       0.00000000e+00       0.00000000e+00 
       0.00000000e+00       0.00000000e+00       0.00000000e+00 
       0.00000000e+00       0.00000000e+00       0.00000000e+00 
       0.00000000e+00       0.00000000e+00       0.00000000e+00 
       9.09131899e-05       1.20363342e-06      -4.61530036e-05 
       9.09131899e-05       1.20363342e-06      -4.61530036e-05 
       9.09131899e-05       1.20363342e-06      -4.61530036e-05 
       9.09131899e-05       1.20363342e-06      -4.61530036e-05 
       4.54565950e-05       6.01816712e-07      -2.30765018e-05 
       4.54565950e-05       6.01816712e-07      -2.30765018e-05 
       4.54565950e-05       6.01816712e-07      -2.30765018e-05 
       4.54565950e-05       6.01816712e-07      -2.30765018e-05 
       0.00000000e+00       0.00000000e+00       0.00000000e+00 
       0.00000000e+00       0.00000000e+00       0.00000000e+00 
       0.00000000e+00       0.00000000e+00       0.00000000e+00 
       0.00000000e+00       0.00000000e+00       0.00000000e+00 
       9.09132405e-05      -1.22420886e-06      -4.61550966e-05 
       9.09132405e-05      -1.22420886e-06      -4.61550966e-05 
       9.09132405e-05      -1.22420886e-06      -4.61550966e-05 
       9.09132405e-05      -1.22420886e-06      -4.61550966e-05 
       0.00000000e+00       0.00000000e+00       0.00000000e+00 
       0.00000000e+00       0.00000000e+00       0.00000000e+00 
       0.00000000e+00       0.00000000e+00       0.00000000e+00 
       0.00000000e+00       0.00000000e+00       0.00000000e+00 
       9.09132405e-05      -1.22420886e-06      -4.61550966e-05 
       9.09132405e-05      -1.22420886e-06      -4.61550966e-05 
       9.09132405e-05      -1.22420886e-06      -4.61550966e-05 
       9.09132405e-05      -1.22420886e-06      -4.61550966e-05 
       4.54566202e-05      -6.12104429e-07      -2.30775483e-05 
       4.54566202e-05      -6.12104429e-07      -2.30775483e-05 
       4.54566202e-05      -6.12104429e-07      -2.30775483e-05 
       4.54566202e-05      -6.12104429e-07      -2.30775483e-05 
       0.00000000e+00       0.00000000e+00       0.00000000e+00 
       0.00000000e+00       0.00000000e+00       0.00000000e+00 
       0.00000000e+00       0.00000000e+00       0.00000000e+00 
       0.00000000e+00       0.00000000e+00       0.00000000e+00 
       9.20478197e-05      -1.03175094e-08      -3.66695705e-05 
       9.20478197e-05      -1.03175094e-08      -3.66695705e-05 
       9.20478197e-05      -1.03175094e-08      -3.66695705e-05 
       9.20478197e-05      -1.03175094e-08      -3.66695705e-05 
       0.00000000e+00       0.00000000e+00       0.00000000e+00 
       0.00000000e+00       0.00000000e+00       0.00000000e+00 
       0.00000000e+00       0.00000000e+00       0.00000000e+00 
       0.00000000e+00       0.00000000e+00       0.00000000e+00 
       9.20478197e-05      -1.03175094e-08      -3.66695705e-05 
       9.20478197e-05      -1.03175094e-08      -3.66695705e-05 
       9.20478197e-05      -1.03175094e-08      -3.66695705e-05 
       9.20478197e-05      -1.03175094e-08      -3.66695705e-05 
       4.60239099e-05      -5.15875472e-09      -1.83347852e-05 
       4.60239099e-05      -5.15875472e-09      -1.83347852e-05 
       4.60239099e-05      -5.15875472e-09      -1.83347852e-05 
       4.60239099e-05      -5.15875472e-09      -1.83347852e-05 
       0.00000000e+00       0.00000000e+00       0.00000000e+00 
       0.00000000e+00       0.00000000e+00       0.00000000e+00 
       0.00000000e+00       0.00000000e+00       0.00000000e+00 
       0.00000000e+00       0.00000000e+00       0.00000000e+00 
       9.09131899e-05       1.20363342e-06      -4.61530036e-05 
       9.09131899e-05       1.20363342e-06      -4.61530036e-05 
       9.09131899e-05       1.20363342e-06      -4.61530036e-05 
       9.09131899e-05       1.20363342e-06      -4.61530036e-05 
       0.00000000e+00       0.00000000e+00       0.00000000e+00 
       0.00000000e+00       0.00000000e+00       0.00000000e+00 
       0.00000000e+00       0.00000000e+00       0.00000000e+00 
       0.00000000e+00       0.00000000e+00       0.00000000e+00 
       9.09131899e-05       1.20363342e-06      -4.61530036e-05 
       9.09131899e-05       1.20363342e-06      -4.61530036e-05 
       9.09131899e-05       1.20363342e-06      -4.61530036e-05 
       9.09131899e-05       1.20363342e-06      -4.61530036e-05 
       4.54565950e-05       6.01816712e-07      -2.30765018e-05 
       4.54565950e-05       6.01816712e-07      -2.30765018e-05 
       4.54565950e-05       6.01816712e-07      -2.30765018e-05 
       4.54565950e-05       6.01816712e-07      -2.30765018e-05 
       0.00000000e+00       0.00000000e+00       0.00000000e+00 
       0.00000000e+00       0.00000000e+00       0.00000000e+00 
       0.00000000e+00       0.00000000e+00       0.00000000e+00 
       0.00000000e+00       0.00000000e+00       0.00000000e+00 
       1.06760489e-04      -7.98407473e-06      -1.16883162e-05 
       1.06760489e-04      -7.98407473e-06      -1.16883162e-05 
       1.06760489e-04      -7.98407473e-06      -1.16883162e-05 
       1.06760489e-04      -7.98407473e-06      -1.16883162e-05 
       0.00000000e+00       0.00000000e+00       0.00000000e+00 
       0.00000000e+00       0.00000000e+00       0.00000000e+00 
       0.00000000e+00       0.00000000e+00       0.00000000e+00 
       0.00000000e+00       0.00000000e+00       0.00000000e+00 
       1.06760489e-04      -7.98407473e-06      -1.16883162e-05 
       1.06760489e-04      -7.98407473e-06      -1.16883162e-05 
       1.06760489e-04      -7.98407473e-06      -1.16883162e-05 
       1.06760489e-04      -7.98407473e-06      -1.16883162e-05 
       5.33802444e-05      -3.99203736e-06      -5.84415812e-06 
       5.33802444e-05      -3.99203736e-06      -5.84415812e-06 
       5.33802444e-05      -3.99203736e-06      -5.84415812e-06 
       5.33802444e-05      -3.99203736e-06      -5.84415812e-06 
       0.00000000e+00       0.00000000e+00       0.00000000e+00 
       0.00000000e+00       0.00000000e+00       0.00000000e+00 
       0.00000000e+00       0.00000000e+00       0.00000000e+00 
       0.00000000e+00       0.00000000e+00       0.00000000e+00 
       1.30654495e-04      -1.61735291e-05      -3.39001025e-04 
       1.30654495e-04      -1.61735291e-05      -3.39001025e-04 
       1.30654495e-04      -1.61735291e-05      -3.39001025e-04 
       1.30654495e-04      -1.61735291e-05      -3.39001025e-04 
       0.00000000e+00       0.00000000e+00       0.00000000e+00 
       0.00000000e+00       0.00000000e+00       0.00000000e+00 
       0.00000000e+00       0.00000000e+00       0.00000000e+00 
       0.00000000e+00       0.00000000e+00       0.00000000e+00 
       1.30654495e-04      -1.61735291e-05      -3.39001025e-04 
       1.30654495e-04      -1.61735291e-05      -3.39001025e-04 
       1.30654495e-04      -1.61735291e-05      -3.39001025e-04 
       1.30654495e-04      -1.61735291e-05      -3.39001025e-04 
       6.53272475e-05      -8.08676457e-06      -1.69500512e-04 
       6.53272475e-05      -8.08676457e-06      -1.69500512e-04 
       6.53272475e-05      -8.08676457e-06      -1.69500512e-04 
       6.53272475e-05      -8.08676457e-06      -1.69500512e-04 
       0.00000000e+00       0.00000000e+00       0.00000000e+00 
       0.00000000e+00       0.00000000e+00       0.00000000e+00 
       0.00000000e+00       0.00000000e+00       0.00000000e+00 
       0.00000000e+00       0.00000000e+00       0.00000000e+00 
       1.30655780e-04       1.61462022e-05      -3.39027847e-04 
       1.30655780e-04       1.61462022e-05      -3.39027847e-04 
       1.30655780e-04       1.61462022e-05      -3.39027847e-04 
       1.30655780e-04       1.61462022e-05      -3.39027847e-04 
       0.00000000e+00       0.00000000e+00       0.00000000e+00 
       0.00000000e+00       0.00000000e+00       0.00000000e+00 
       0.00000000e+00       0.00000000e+00       0.00000000e+00 
       0.00000000e+00       0.00000000e+00       0.00000000e+00 
       1.30655780e-04       1.61462022e-05      -3.39027847e-04 
       1.30655780e-04       1.61462022e-05      -3.39027847e-04 
       1.30655780e-04       1.61462022e-05      -3.39027847e-04 
       1.30655780e-04       1.61462022e-05      -3.39027847e-04 
       6.53278900e-05       8.07310110e-06      -1.69513924e-04 
       6.53278900e-05       8.07310110e-06      -1.69513924e-04 
       6.53278900e-05       8.07310110e-06      -1.69513924e-04 
       6.53278900e-05       8.07310110e-06      -1.69513924e-04 
       0.00000000e+00       0.00000000e+00       0.00000000e+00 
       0.00000000e+00       0.00000000e+00       0.00000000e+00 
       0.00000000e+00       0.00000000e+00       0.00000000e+00 
       0.00000000e+00       0.00000000e+00       0.00000000e+00 
       1.06759329e-04       7.95691528e-06      -1.17151262e-05 
       1.06759329e-04       7.95691528e-06      -1.17151262e-05 
       1.06759329e-04       7.95691528e-06      -1.17151262e-05 
       1.06759329e-04       7.95691528e-06      -1.17151262e-05 
       0.00000000e+00       0.00000000e+00       0.00000000e+00 
       0.00000000e+00       0.00000000e+00       0.00000000e+00 
       0.00000000e+00       0.00000000e+00       0.00000000e+00 
       0.00000000e+00       0.00000000e+00       0.00000000e+00 
       1.06759329e-04       7.95691528e-06      -1.17151262e-05 
       1.06759329e-04       7.95691528e-06      -1.17151262e-05 
       1.06759329e-04       7.95691528e-06      -1.17151262e-05 
       1.06759329e-04       7.95691528e-06      -1.17151262e-05 
       5.33796644e-05       3.97845764e-06      -5.85756309e-06 
       5.33796644e-05       3.97845764e-06      -5.85756309e-06 
       5.33796644e-05       3.97845764e-06      -5.85756309e-06 
       5.33796644e-05       3.97845764e-06      -5.85756309e-06 
       9.44753060e-05      -1.02576494e-08      -5.56353817e-05 
       9.44753060e-05      -1.02576494e-08      -5.56353817e-05 
       9.44753060e-05      -1.02576494e-08      -5.56353817e-05 
       9.44753060e-05      -1.02576494e-08      -5.56353817e-05 
       1.06759329e-04       7.95691528e-06      -1.17151262e-05 
       1.06759329e-04       7.95691528e-06      -1.17151262e-05 
       1.06759329e-04       7.95691528e-06      -1.17151262e-05 
       1.06759329e-04       7.95691528e-06      -1.17151262e-05 
       9.44753060e-05      -1.02576494e-08      -5.56353817e-05 
       9.44753060e-05      -1.02576494e-08      -5.56353817e-05 
       9.44753060e-05      -1.02576494e-08      -5.56353817e-05 
       9.44753060e-05      -1.02576494e-08      -5.56353817e-05 
       1.06759329e-04       7.95691528e-06      -1.17151262e-05 
       1.06759329e-04       7.95691528e-06      -1.17151262e-05 
       1.06759329e-04       7.95691528e-06      -1.17151262e-05 
       1.06759329e-04       7.95691528e-06      -1.17151262e-05 
       1.00617317e-04       3.97332882e-06      -3.36752540e-05 
       1.00617317e-04       3.97332882e-06      -3.36752540e-05 
       1.00617317e-04       3.97332882e-06      -3.36752540e-05 
       1.00617317e-04       3.97332882e-06      -3.36752540e-05 
       9.44753060e-05      -1.02576494e-08      -5.56353817e-05 
       9.44753060e-05      -1.02576494e-08      -5.56353817e-05 
       9.44753060e-05      -1.02576494e-08      -5.56353817e-05 
       9.44753060e-05      -1.02576494e-08      -5.56353817e-05 
       1.06760489e-04      -7.98407473e-06      -1.16883162e-05 
       1.06760489e-04      -7.98407473e-06      -1.16883162e-05 
       1.06760489e-04      -7.98407473e-06      -1.16883162e-05 
       1.06760489e-04      -7.98407473e-06      -1.16883162e-05 
       9.44753060e-05      -1.02576494e-08      -5.56353817e-05 
       9.44753060e-05      -1.02576494e-08      -5.56353817e-05 
       9.44753060e-05      -1.02576494e-08      -5.56353817e-05 
       9.44753060e-05      -1.02576494e-08      -5.56353817e-05 
       1.06760489e-04      -7.98407473e-06      -1.16883162e-05 
       1.06760489e-04      -7.98407473e-06      -1.16883162e-05 
       1.06760489e-04      -7.98407473e-06      -1.16883162e-05 
       1.06760489e-04      -7.98407473e-06      -1.16883162e-05 
       1.00617897e-04      -3.99716619e-06      -3.36618490e-05 
       1.00617897e-04      -3.99716619e-06      -3.36618490e-05 
       1.00617897e-04      -3.99716619e-06      -3.36618490e-05 
       1.00617897e-04      -3.99716619e-06      -3.36618490e-05 
       9.20478197e-05      -1.03175094e-08      -3.66695705e-05 
       9.20478197e-05      -1.03175094e-08      -3.66695705e-05 
       9.20478197e-05      -1.03175094e-08      -3.66695705e-05 
       9.20478197e-05      -1.03175094e-08      -3.66695705e-05 
       1.30655780e-04       1.61462022e-05      -3.39027847e-04 
       1.30655780e-04       1.61462022e-05      -3.39027847e-04 
       1.30655780e-04       1.61462022e-05      -3.39027847e-04 
       1.30655780e-04       1.61462022e-05      -3.39027847e-04 
       9.20478197e-05      -1.03175094e-08      -3.66695705e-05 
       9.20478197e-05      -1.03175094e-08      -3.66695705e-05 
       9.20478197e-05      -1.03175094e-08      -3.66695705e-05 
       9.20478197e-05      -1.03175094e-08      -3.66695705e-05 
       1.30655780e-04       1.61462022e-05      -3.39027847e-04 
       1.30655780e-04       1.61462022e-05      -3.39027847e-04 
       1.30655780e-04       1.61462022e-05      -3.39027847e-04 
       1.30655780e-04       1.61462022e-05      -3.39027847e-04 
       1.11351800e-04       8.06794235e-06      -1.87848709e-04 
       1.11351800e-04       8.06794235e-06      -1.87848709e-04 
       1.11351800e-04       8.06794235e-06      -1.87848709e-04 
       1.11351800e-04       8.06794235e-06      -1.87848709e-04 
       9.20478197e-05      -1.03175094e-08      -3.66695705e-05 
       9.20478197e-05      -1.03175094e-08      -3.66695705e-05 
       9.20478197e-05      -1.03175094e-08      -3.66695705e-05 
       9.20478197e-05      -1.03175094e-08      -3.66695705e-05 
       9.09131899e-05       1.20363342e-06      -4.61530036e-05 
       9.09131899e-05       1.20363342e-06      -4.61530036e-05 