# vtk DataFile Version 2.0
./output/Static_Tower/Static_Tower_0001.vtk
ASCII
DATASET UNSTRUCTURED_GRID

POINTS 13260 float
      -4.335798e+00       4.312525e+00      -9.533593e-03 
      -4.309007e+00       4.315348e+00      -9.533593e-03 
      -4.311002e+00       4.334275e+00       9.533593e-03 
      -4.337793e+00       4.331452e+00       9.533593e-03 
      -3.880212e+00      -1.087484e-02       4.329614e+00 
      -3.853421e+00      -8.051650e-03       4.329614e+00 
      -3.855415e+00       1.087482e-02       4.348681e+00 
      -3.882207e+00       8.051633e-03       4.348681e+00 
      -4.321990e+00       4.310017e+00      -1.348254e-02 
      -4.304456e+00       4.325396e+00       0.000000e+00 
      -4.324810e+00       4.336783e+00       1.348254e-02 
      -4.342344e+00       4.321404e+00       0.000000e+00 
      -3.866404e+00      -1.338304e-02       4.325665e+00 
      -3.848869e+00       1.996286e-03       4.339147e+00 
      -3.869224e+00       1.338303e-02       4.352630e+00 
      -3.886758e+00      -1.996304e-03       4.339147e+00 
      -4.108005e+00       2.150825e+00       2.160040e+00 
      -4.081214e+00       2.153648e+00       2.160040e+00 
      -4.083208e+00       2.172575e+00       2.179107e+00 
      -4.110000e+00       2.169752e+00       2.179107e+00 
       4.309007e+00       4.315348e+00      -9.533554e-03 
       4.335799e+00       4.312526e+00      -9.533554e-03 
       4.337793e+00       4.331452e+00       9.533554e-03 
       4.311001e+00       4.334274e+00       9.533554e-03 
       3.853591e+00      -8.052249e-03       4.329632e+00 
       3.880383e+00      -1.087439e-02       4.329632e+00 
       3.882376e+00       8.052231e-03       4.348699e+00 
       3.855585e+00       1.087438e-02       4.348699e+00 
       4.321990e+00       4.310017e+00      -1.348248e-02 
       4.342344e+00       4.321404e+00       0.000000e+00 
       4.324810e+00       4.336783e+00       1.348248e-02 
       4.304456e+00       4.325396e+00       0.000000e+00 
       3.866574e+00      -1.338315e-02       4.325683e+00 
       3.886928e+00      -1.995567e-03       4.339165e+00 
       3.869394e+00       1.338314e-02       4.352648e+00 
       3.849039e+00       1.995549e-03       4.339165e+00 
       4.081299e+00       2.153648e+00       2.160049e+00 
       4.108091e+00       2.150826e+00       2.160049e+00 
       4.110084e+00       2.169752e+00       2.179116e+00 
       4.083293e+00       2.172574e+00       2.179116e+00 
      -4.309007e+00      -4.315348e+00      -9.533593e-03 
      -4.335798e+00      -4.312525e+00      -9.533593e-03 
      -4.337793e+00      -4.331452e+00       9.533593e-03 
      -4.311002e+00      -4.334275e+00       9.533593e-03 
      -3.853421e+00       8.051633e-03       4.329614e+00 
      -3.880212e+00       1.087482e-02       4.329614e+00 
      -3.882207e+00      -8.051650e-03       4.348681e+00 
      -3.855415e+00      -1.087484e-02       4.348681e+00 
      -4.321990e+00      -4.310017e+00      -1.348254e-02 
      -4.342344e+00      -4.321404e+00       0.000000e+00 
      -4.324810e+00      -4.336783e+00       1.348254e-02 
      -4.304456e+00      -4.325396e+00       0.000000e+00 
      -3.866404e+00       1.338303e-02       4.325665e+00 
      -3.886758e+00       1.996286e-03       4.339147e+00 
      -3.869224e+00      -1.338304e-02       4.352630e+00 
      -3.848869e+00      -1.996304e-03       4.339147e+00 
      -4.081214e+00      -2.153648e+00       2.160040e+00 
      -4.108005e+00      -2.150825e+00       2.160040e+00 
      -4.110000e+00      -2.169752e+00       2.179107e+00 
      -4.083208e+00      -2.172575e+00       2.179107e+00 
      -4.315348e+00       4.309007e+00      -9.533664e-03 
      -4.312526e+00       4.335799e+00      -9.533664e-03 
      -4.331452e+00       4.337793e+00       9.533664e-03 
      -4.334274e+00       4.311001e+00       9.533664e-03 
       8.134627e-03       3.853506e+00       4.329623e+00 
       1.095724e-02       3.880298e+00       4.329623e+00 
      -7.969133e-03       3.882291e+00       4.348690e+00 
      -1.079175e-02       3.855500e+00       4.348690e+00 
      -4.310017e+00       4.321990e+00      -1.348264e-02 
      -4.321404e+00       4.342344e+00       0.000000e+00 
      -4.336783e+00       4.324810e+00       1.348264e-02 
      -4.325396e+00       4.304456e+00       0.000000e+00 
       1.346571e-02       3.866489e+00       4.325674e+00 
       2.078636e-03       3.886843e+00       4.339156e+00 
      -1.330022e-02       3.869309e+00       4.352639e+00 
      -1.913141e-03       3.848954e+00       4.339156e+00 
      -2.153607e+00       4.081257e+00       2.160044e+00 
      -2.150784e+00       4.108048e+00       2.160044e+00 
      -2.169711e+00       4.110042e+00       2.179112e+00 
      -2.172533e+00       4.083251e+00       2.179112e+00 
      -4.312526e+00      -4.335799e+00      -9.533664e-03 
      -4.315348e+00      -4.309007e+00      -9.533664e-03 
      -4.334274e+00      -4.311001e+00       9.533664e-03 
      -4.331452e+00      -4.337793e+00       9.533664e-03 
       1.095724e-02      -3.880298e+00       4.329623e+00 
       8.134627e-03      -3.853506e+00       4.329623e+00 
      -1.079175e-02      -3.855500e+00       4.348690e+00 
      -7.969133e-03      -3.882292e+00       4.348690e+00 
      -4.310017e+00      -4.321990e+00      -1.348264e-02 
      -4.325396e+00      -4.304456e+00       0.000000e+00 
      -4.336783e+00      -4.324810e+00       1.348264e-02 
      -4.321404e+00      -4.342344e+00       0.000000e+00 
       1.346571e-02      -3.866489e+00       4.325674e+00 
      -1.913141e-03      -3.848954e+00       4.339156e+00 
      -1.330022e-02      -3.869309e+00       4.352639e+00 
       2.078636e-03      -3.886843e+00       4.339156e+00 
      -2.150784e+00      -4.108048e+00       2.160044e+00 
      -2.153607e+00      -4.081257e+00       2.160044e+00 
      -2.172533e+00      -4.083251e+00       2.179112e+00 
      -2.169711e+00      -4.110042e+00       2.179112e+00 
       4.312525e+00       4.335799e+00      -9.533483e-03 
       4.315348e+00       4.309007e+00      -9.533483e-03 
       4.334275e+00       4.311001e+00       9.533483e-03 
       4.331452e+00       4.337793e+00       9.533483e-03 
      -1.079197e-02       3.880297e+00       4.329623e+00 
      -7.969255e-03       3.853506e+00       4.329623e+00 
       1.095747e-02       3.855500e+00       4.348690e+00 
       8.134749e-03       3.882292e+00       4.348690e+00 
       4.310017e+00       4.321990e+00      -1.348238e-02 
       4.325396e+00       4.304456e+00       0.000000e+00 
       4.336783e+00       4.324810e+00       1.348238e-02 
       4.321404e+00       4.342344e+00       0.000000e+00 
      -1.330047e-02       3.866489e+00       4.325674e+00 
       2.078712e-03       3.848954e+00       4.339156e+00 
       1.346596e-02       3.869309e+00       4.352639e+00 
      -1.913217e-03       3.886843e+00       4.339156e+00 
       2.150867e+00       4.108048e+00       2.160045e+00 
       2.153689e+00       4.081257e+00       2.160045e+00 
       2.172616e+00       4.083251e+00       2.179112e+00 
       2.169793e+00       4.110042e+00       2.179112e+00 
       4.335799e+00      -4.312526e+00      -9.533554e-03 
       4.309007e+00      -4.315348e+00      -9.533554e-03 
       4.311001e+00      -4.334274e+00       9.533554e-03 
       4.337793e+00      -4.331452e+00       9.533554e-03 
       3.880383e+00       1.087438e-02       4.329632e+00 
       3.853591e+00       8.052231e-03       4.329632e+00 
       3.855585e+00      -1.087439e-02       4.348699e+00 
       3.882376e+00      -8.052249e-03       4.348699e+00 
       4.321990e+00      -4.310017e+00      -1.348248e-02 
       4.304456e+00      -4.325396e+00       0.000000e+00 
       4.324810e+00      -4.336783e+00       1.348248e-02 
       4.342344e+00      -4.321404e+00       0.000000e+00 
       3.866574e+00       1.338314e-02       4.325683e+00 
       3.849039e+00      -1.995567e-03       4.339165e+00 
       3.869394e+00      -1.338315e-02       4.352648e+00 
       3.886928e+00       1.995549e-03       4.339165e+00 
       4.108091e+00      -2.150826e+00       2.160049e+00 
       4.081299e+00      -2.153648e+00       2.160049e+00 
       4.083293e+00      -2.172574e+00       2.179116e+00 
       4.110084e+00      -2.169752e+00       2.179116e+00 
       4.315348e+00      -4.309007e+00      -9.533483e-03 
       4.312525e+00      -4.335799e+00      -9.533483e-03 
       4.331452e+00      -4.337793e+00       9.533483e-03 
       4.334275e+00      -4.311001e+00       9.533483e-03 
      -7.969255e-03      -3.853506e+00       4.329623e+00 
      -1.079197e-02      -3.880297e+00       4.329623e+00 
       8.134749e-03      -3.882292e+00       4.348690e+00 
       1.095747e-02      -3.855500e+00       4.348690e+00 
       4.310017e+00      -4.321990e+00      -1.348238e-02 
       4.321404e+00      -4.342344e+00       0.000000e+00 
       4.336783e+00      -4.324810e+00       1.348238e-02 
       4.325396e+00      -4.304456e+00       0.000000e+00 
      -1.330047e-02      -3.866489e+00       4.325674e+00 
      -1.913217e-03      -3.886843e+00       4.339156e+00 
       1.346596e-02      -3.869309e+00       4.352639e+00 
       2.078711e-03      -3.848954e+00       4.339156e+00 
       2.153689e+00      -4.081257e+00       2.160045e+00 
       2.150867e+00      -4.108048e+00       2.160045e+00 
       2.169793e+00      -4.110042e+00       2.179112e+00 
       2.172616e+00      -4.083251e+00       2.179112e+00 
      -4.290298e+00      -4.323584e+00      -3.456220e-03 
      -4.323577e+00      -4.290298e+00      -3.456220e-03 
      -4.356502e+00      -4.323216e+00       3.456220e-03 
      -4.323223e+00      -4.356502e+00       3.456220e-03 
      -3.834702e+00      -3.868091e+00       4.335743e+00 
      -3.867981e+00      -3.834805e+00       4.335743e+00 
      -3.900906e+00      -3.867723e+00       4.342655e+00 
[...]
POINT_DATA     13260 
VECTORS Displacements float
       0.00000000e+00       0.00000000e+00       0.00000000e+00 
       0.00000000e+00       0.00000000e+00       0.00000000e+00 
       0.00000000e+00       0.00000000e+00       0.00000000e+00 
       0.00000000e+00       0.00000000e+00       0.00000000e+00 
       8.62263390e-05      -8.90592540e-09      -5.27145777e-05 
       8.62263390e-05      -8.90592540e-09      -5.27145777e-05 
       8.62263390e-05      -8.90592540e-09      -5.27145777e-05 
       8.62263390e-05      -8.90592540e-09      -5.27145777e-05 
       0.00000000e+00       0.00000000e+00       0.00000000e+00 
       0.00000000e+00       0.00000000e+00       0.00000000e+00 
       0.00000000e+00       0.00000000e+00       0.00000000e+00 
       0.00000000e+00       0.00000000e+00       0.00000000e+00 
       8.62263390e-05      -8.90592540e-09      -5.27145777e-05 
       8.62263390e-05      -8.90592540e-09      -5.27145777e-05 
       8.62263390e-05      -8.90592540e-09      -5.27145777e-05 
       8.62263390e-05      -8.90592540e-09      -5.27145777e-05 
       4.31131695e-05      -4.45296270e-09      -2.63572889e-05 
       4.31131695e-05      -4.45296270e-09      -2.63572889e-05 
       4.31131695e-05      -4.45296270e-09      -2.63572889e-05 
       4.31131695e-05      -4.45296270e-09      -2.63572889e-05 
       0.00000000e+00       0.00000000e+00       0.00000000e+00 
       0.00000000e+00       0.00000000e+00       0.00000000e+00 
       0.00000000e+00       0.00000000e+00       0.00000000e+00 
       0.00000000e+00       0.00000000e+00       0.00000000e+00 
       8.38398601e-05      -8.96272048e-09      -3.48659209e-05 
       8.38398601e-05      -8.96272048e-09      -3.48659209e-05 
       8.38398601e-05      -8.96272048e-09      -3.48659209e-05 
       8.38398601e-05      -8.96272048e-09      -3.48659209e-05 
       0.00000000e+00       0.00000000e+00       0.00000000e+00 
       0.00000000e+00       0.00000000e+00       0.00000000e+00 
       0.00000000e+00       0.00000000e+00       0.00000000e+00 
       0.00000000e+00       0.00000000e+00       0.00000000e+00 
       8.38398601e-05      -8.96272048e-09      -3.48659209e-05 
       8.38398601e-05      -8.96272048e-09      -3.48659209e-05 
       8.38398601e-05      -8.96272048e-09      -3.48659209e-05 
       8.38398601e-05      -8.96272048e-09      -3.48659209e-05 
       4.19199300e-05      -4.48136024e-09      -1.74329605e-05 
       4.19199300e-05      -4.48136024e-09      -1.74329605e-05 
       4.19199300e-05      -4.48136024e-09      -1.74329605e-05 
       4.19199300e-05      -4.48136024e-09      -1.74329605e-05 
       0.00000000e+00       0.00000000e+00       0.00000000e+00 
       0.00000000e+00       0.00000000e+00       0.00000000e+00 
       0.00000000e+00       0.00000000e+00       0.00000000e+00 
       0.00000000e+00       0.00000000e+00       0.00000000e+00 
       8.62263390e-05      -8.90592540e-09      -5.27145777e-05 
       8.62263390e-05      -8.90592540e-09      -5.27145777e-05 
       8.62263390e-05      -8.90592540e-09      -5.27145777e-05 
       8.62263390e-05      -8.90592540e-09      -5.27145777e-05 
       0.00000000e+00       0.00000000e+00       0.00000000e+00 
       0.00000000e+00       0.00000000e+00       0.00000000e+00 
       0.00000000e+00       0.00000000e+00       0.00000000e+00 
       0.00000000e+00       0.00000000e+00       0.00000000e+00 
       8.62263390e-05      -8.90592540e-09      -5.27145777e-05 
       8.62263390e-05      -8.90592540e-09      -5.27145777e-05 
       8.62263390e-05      -8.90592540e-09      -5.27145777e-05 
       8.62263390e-05      -8.90592540e-09      -5.27145777e-05 
       4.31131695e-05      -4.45296270e-09      -2.63572889e-05 
       4.31131695e-05      -4.45296270e-09      -2.63572889e-05 
       4.31131695e-05      -4.45296270e-09      -2.63572889e-05 
       4.31131695e-05      -4.45296270e-09      -2.63572889e-05 
       0.00000000e+00       0.00000000e+00       0.00000000e+00 
       0.00000000e+00       0.00000000e+00       0.00000000e+00 
       0.00000000e+00       0.00000000e+00       0.00000000e+00 
       0.00000000e+00       0.00000000e+00       0.00000000e+00 
       8.27474373e-05      -1.20233718e-06      -4.37927013e-05 
       8.27474373e-05      -1.20233718e-06      -4.37927013e-05 
       8.27474373e-05      -1.20233718e-06      -4.37927013e-05 
       8.27474373e-05      -1.20233718e-06      -4.37927013e-05 
       0.00000000e+00       0.00000000e+00       0.00000000e+00 
       0.00000000e+00       0.00000000e+00       0.00000000e+00 
       0.00000000e+00       0.00000000e+00       0.00000000e+00 
       0.00000000e+00       0.00000000e+00       0.00000000e+00 
       8.27474373e-05      -1.20233718e-06      -4.37927013e-05 
       8.27474373e-05      -1.20233718e-06      -4.37927013e-05 
       8.27474373e-05      -1.20233718e-06      -4.37927013e-05 
       8.27474373e-05      -1.20233718e-06      -4.37927013e-05 
       4.13737186e-05      -6.01168588e-07      -2.18963507e-05 
       4.13737186e-05      -6.01168588e-07      -2.18963507e-05 
       4.13737186e-05      -6.01168588e-07      -2.18963507e-05 
       4.13737186e-05      -6.01168588e-07      -2.18963507e-05 
       0.00000000e+00       0.00000000e+00       0.00000000e+00 
       0.00000000e+00       0.00000000e+00       0.00000000e+00 
       0.00000000e+00       0.00000000e+00       0.00000000e+00 
       0.00000000e+00       0.00000000e+00       0.00000000e+00 
       8.27473872e-05       1.18446830e-06      -4.37908252e-05 
       8.27473872e-05       1.18446830e-06      -4.37908252e-05 
       8.27473872e-05       1.18446830e-06      -4.37908252e-05 
       8.27473872e-05       1.18446830e-06      -4.37908252e-05 
       0.00000000e+00       0.00000000e+00       0.00000000e+00 
       0.00000000e+00       0.00000000e+00       0.00000000e+00 
       0.00000000e+00       0.00000000e+00       0.00000000e+00 
       0.00000000e+00       0.00000000e+00       0.00000000e+00 
       8.27473872e-05       1.18446830e-06      -4.37908252e-05 
       8.27473872e-05       1.18446830e-06      -4.37908252e-05 
       8.27473872e-05       1.18446830e-06      -4.37908252e-05 
       8.27473872e-05       1.18446830e-06      -4.37908252e-05 
       4.13736936e-05       5.92234152e-07      -2.18954126e-05 
       4.13736936e-05       5.92234152e-07      -2.18954126e-05 
       4.13736936e-05       5.92234152e-07      -2.18954126e-05 
       4.13736936e-05       5.92234152e-07      -2.18954126e-05 
       0.00000000e+00       0.00000000e+00       0.00000000e+00 
       0.00000000e+00       0.00000000e+00       0.00000000e+00 
       0.00000000e+00       0.00000000e+00       0.00000000e+00 
       0.00000000e+00       0.00000000e+00       0.00000000e+00 
       8.27474373e-05      -1.20233718e-06      -4.37927013e-05 
       8.27474373e-05      -1.20233718e-06      -4.37927013e-05 
       8.27474373e-05      -1.20233718e-06      -4.37927013e-05 
       8.27474373e-05      -1.20233718e-06      -4.37927013e-05 
       0.00000000e+00       0.00000000e+00       0.00000000e+00 
       0.00000000e+00       0.00000000e+00       0.00000000e+00 
       0.00000000e+00       0.00000000e+00       0.00000000e+00 
       0.00000000e+00       0.00000000e+00       0.00000000e+00 
       8.27474373e-05      -1.20233718e-06      -4.37927013e-05 
       8.27474373e-05      -1.20233718e-06      -4.37927013e-05 
       8.27474373e-05      -1.20233718e-06      -4.37927013e-05 
       8.27474373e-05      -1.20233718e-06      -4.37927013e-05 
       4.13737186e-05      -6.01168588e-07      -2.18963507e-05 
       4.13737186e-05      -6.01168588e-07      -2.18963507e-05 
       4.13737186e-05      -6.01168588e-07      -2.18963507e-05 
       4.13737186e-05      -6.01168588e-07      -2.18963507e-05 
       0.00000000e+00       0.00000000e+00       0.00000000e+00 
       0.00000000e+00       0.00000000e+00       0.00000000e+00 
       0.00000000e+00       0.00000000e+00       0.00000000e+00 
       0.00000000e+00       0.00000000e+00       0.00000000e+00 
       8.38398601e-05      -8.96272048e-09      -3.48659209e-05 
       8.38398601e-05      -8.96272048e-09      -3.48659209e-05 
       8.38398601e-05      -8.96272048e-09      -3.48659209e-05 
       8.38398601e-05      -8.96272048e-09      -3.48659209e-05 
       0.00000000e+00       0.00000000e+00       0.00000000e+00 
       0.00000000e+00       0.00000000e+00       0.00000000e+00 
       0.00000000e+00       0.00000000e+00       0.00000000e+00 
       0.00000000e+00       0.00000000e+00       0.00000000e+00 
       8.38398601e-05      -8.96272048e-09      -3.48659209e-05 
       8.38398601e-05      -8.96272048e-09      -3.48659209e-05 
       8.38398601e-05      -8.96272048e-09      -3.48659209e-05 
       8.38398601e-05      -8.96272048e-09      -3.48659209e-05 
       4.19199300e-05      -4.48136024e-09      -1.74329605e-05 
       4.19199300e-05      -4.48136024e-09      -1.74329605e-05 
       4.19199300e-05      -4.48136024e-09      -1.74329605e-05 
       4.19199300e-05      -4.48136024e-09      -1.74329605e-05 
       0.00000000e+00       0.00000000e+00       0.00000000e+00 
       0.00000000e+00       0.00000000e+00       0.00000000e+00 
       0.00000000e+00       0.00000000e+00       0.00000000e+00 
       0.00000000e+00       0.00000000e+00       0.00000000e+00 
       8.27473872e-05       1.18446830e-06      -4.37908252e-05 
       8.27473872e-05       1.18446830e-06      -4.37908252e-05 
       8.27473872e-05       1.18446830e-06      -4.37908252e-05 
       8.27473872e-05       1.18446830e-06      -4.37908252e-05 
       0.00000000e+00       0.00000000e+00       0.00000000e+00 
       0.00000000e+00       0.00000000e+00       0.00000000e+00 
       0.00000000e+00       0.00000000e+00       0.00000000e+00 
       0.00000000e+00       0.00000000e+00       0.00000000e+00 
       8.27473872e-05       1.18446830e-06      -4.37908252e-05 
       8.27473872e-05       1.18446830e-06      -4.37908252e-05 
       8.27473872e-05       1.18446830e-06      -4.37908252e-05 
       8.27473872e-05       1.18446830e-06      -4.37908252e-05 
       4.13736936e-05       5.92234152e-07      -2.18954126e-05 
       4.13736936e-05       5.92234152e-07      -2.18954126e-05 
       4.13736936e-05       5.92234152e-07      -2.18954126e-05 
       4.13736936e-05       5.92234152e-07      -2.18954126e-05 
       0.00000000e+00       0.00000000e+00       0.00000000e+00 
       0.00000000e+00       0.00000000e+00       0.00000000e+00 
       0.00000000e+00       0.00000000e+00       0.00000000e+00 
       0.00000000e+00       0.00000000e+00       0.00000000e+00 
       9.58180989e-05      -6.68543501e-06      -8.99668711e-07 
       9.58180989e-05      -6.68543501e-06      -8.99668711e-07 
       9.58180989e-05      -6.68543501e-06      -8.99668711e-07 
       9.58180989e-05      -6.68543501e-06      -8.99668711e-07 
       0.00000000e+00       0.00000000e+00       0.00000000e+00 
       0.00000000e+00       0.00000000e+00       0.00000000e+00 
       0.00000000e+00       0.00000000e+00       0.00000000e+00 
       0.00000000e+00       0.00000000e+00       0.00000000e+00 
       9.58180989e-05      -6.68543501e-06      -8.99668711e-07 
       9.58180989e-05      -6.68543501e-06      -8.99668711e-07 
       9.58180989e-05      -6.68543501e-06      -8.99668711e-07 
       9.58180989e-05      -6.68543501e-06      -8.99668711e-07 
       4.79090495e-05      -3.34271750e-06      -4.49834356e-07 
       4.79090495e-05      -3.34271750e-06      -4.49834356e-07 
       4.79090495e-05      -3.34271750e-06      -4.49834356e-07 
       4.79090495e-05      -3.34271750e-06      -4.49834356e-07 
       0.00000000e+00       0.00000000e+00       0.00000000e+00 
       0.00000000e+00       0.00000000e+00       0.00000000e+00 
       0.00000000e+00       0.00000000e+00       0.00000000e+00 
       0.00000000e+00       0.00000000e+00       0.00000000e+00 
       1.18065546e-04      -1.54901062e-05      -3.40184567e-04 
       1.18065546e-04      -1.54901062e-05      -3.40184567e-04 
       1.18065546e-04      -1.54901062e-05      -3.40184567e-04 
       1.18065546e-04      -1.54901062e-05      -3.40184567e-04 
       0.00000000e+00       0.00000000e+00       0.00000000e+00 
       0.00000000e+00       0.00000000e+00       0.00000000e+00 
       0.00000000e+00       0.00000000e+00       0.00000000e+00 
       0.00000000e+00       0.00000000e+00       0.00000000e+00 
       1.18065546e-04      -1.54901062e-05      -3.40184567e-04 
       1.18065546e-04      -1.54901062e-05      -3.40184567e-04 
       1.18065546e-04      -1.54901062e-05      -3.40184567e-04 
       1.18065546e-04      -1.54901062e-05      -3.40184567e-04 
       5.90327729e-05      -7.74505311e-06      -1.70092284e-04 
       5.90327729e-05      -7.74505311e-06      -1.70092284e-04 
       5.90327729e-05      -7.74505311e-06      -1.70092284e-04 
       5.90327729e-05      -7.74505311e-06      -1.70092284e-04 
       0.00000000e+00       0.00000000e+00       0.00000000e+00 
       0.00000000e+00       0.00000000e+00       0.00000000e+00 
       0.00000000e+00       0.00000000e+00       0.00000000e+00 
       0.00000000e+00       0.00000000e+00       0.00000000e+00 
       1.18066701e-04       1.54665842e-05      -3.40207072e-04 
       1.18066701e-04       1.54665842e-05      -3.40207072e-04 
       1.18066701e-04       1.54665842e-05      -3.40207072e-04 
       1.18066701e-04       1.54665842e-05      -3.40207072e-04 
       0.00000000e+00       0.00000000e+00       0.00000000e+00 
       0.00000000e+00       0.00000000e+00       0.00000000e+00 
       0.00000000e+00       0.00000000e+00       0.00000000e+00 
       0.00000000e+00       0.00000000e+00       0.00000000e+00 
       1.18066701e-04       1.54665842e-05      -3.40207072e-04 
       1.18066701e-04       1.54665842e-05      -3.40207072e-04 
       1.18066701e-04       1.54665842e-05      -3.40207072e-04 
       1.18066701e-04       1.54665842e-05      -3.40207072e-04 
       5.90333507e-05       7.73329211e-06      -1.70103536e-04 
       5.90333507e-05       7.73329211e-06      -1.70103536e-04 
       5.90333507e-05       7.73329211e-06      -1.70103536e-04 
       5.90333507e-05       7.73329211e-06      -1.70103536e-04 
       0.00000000e+00       0.00000000e+00       0.00000000e+00 
       0.00000000e+00       0.00000000e+00       0.00000000e+00 
       0.00000000e+00       0.00000000e+00       0.00000000e+00 
       0.00000000e+00       0.00000000e+00       0.00000000e+00 
       9.58170683e-05       6.66206889e-06      -9.22166471e-07 
       9.58170683e-05       6.66206889e-06      -9.22166471e-07 
       9.58170683e-05       6.66206889e-06      -9.22166471e-07 
       9.58170683e-05       6.66206889e-06      -9.22166471e-07 
       0.00000000e+00       0.00000000e+00       0.00000000e+00 
       0.00000000e+00       0.00000000e+00       0.00000000e+00 
       0.00000000e+00       0.00000000e+00       0.00000000e+00 
       0.00000000e+00       0.00000000e+00       0.00000000e+00 
       9.58170683e-05       6.66206889e-06      -9.22166471e-07 
       9.58170683e-05       6.66206889e-06      -9.22166471e-07 
       9.58170683e-05       6.66206889e-06      -9.22166471e-07 
       9.58170683e-05       6.66206889e-06      -9.22166471e-07 
       4.79085341e-05       3.33103445e-06      -4.61083236e-07 
       4.79085341e-05       3.33103445e-06      -4.61083236e-07 
       4.79085341e-05       3.33103445e-06      -4.61083236e-07 
       4.79085341e-05       3.33103445e-06      -4.61083236e-07 
       8.62263390e-05      -8.90592540e-09      -5.27145777e-05 
       8.62263390e-05      -8.90592540e-09      -5.27145777e-05 
       8.62263390e-05      -8.90592540e-09      -5.27145777e-05 
       8.62263390e-05      -8.90592540e-09      -5.27145777e-05 
       9.58170683e-05       6.66206889e-06      -9.22166471e-07 
       9.58170683e-05       6.66206889e-06      -9.22166471e-07 
       9.58170683e-05       6.66206889e-06      -9.22166471e-07 
       9.58170683e-05       6.66206889e-06      -9.22166471e-07 
       8.62263390e-05      -8.90592540e-09      -5.27145777e-05 
       8.62263390e-05      -8.90592540e-09      -5.27145777e-05 
       8.62263390e-05      -8.90592540e-09      -5.27145777e-05 
       8.62263390e-05      -8.90592540e-09      -5.27145777e-05 
       9.58170683e-05       6.66206889e-06      -9.22166471e-07 
       9.58170683e-05       6.66206889e-06      -9.22166471e-07 
       9.58170683e-05       6.66206889e-06      -9.22166471e-07 
       9.58170683e-05       6.66206889e-06      -9.22166471e-07 
       9.10217036e-05       3.32658148e-06      -2.68183721e-05 
       9.10217036e-05       3.32658148e-06      -2.68183721e-05 
       9.10217036e-05       3.32658148e-06      -2.68183721e-05 
       9.10217036e-05       3.32658148e-06      -2.68183721e-05 
       8.62263390e-05      -8.90592540e-09      -5.27145777e-05 
       8.62263390e-05      -8.90592540e-09      -5.27145777e-05 
       8.62263390e-05      -8.90592540e-09      -5.27145777e-05 
       8.62263390e-05      -8.90592540e-09      -5.27145777e-05 
       9.58180989e-05      -6.68543501e-06      -8.99668711e-07 
       9.58180989e-05      -6.68543501e-06      -8.99668711e-07 
       9.58180989e-05      -6.68543501e-06      -8.99668711e-07 
       9.58180989e-05      -6.68543501e-06      -8.99668711e-07 
       8.62263390e-05      -8.90592540e-09      -5.27145777e-05 
       8.62263390e-05      -8.90592540e-09      -5.27145777e-05 
       8.62263390e-05      -8.90592540e-09      -5.27145777e-05 
       8.62263390e-05      -8.90592540e-09      -5.27145777e-05 
       9.58180989e-05      -6.68543501e-06      -8.99668711e-07 
       9.58180989e-05      -6.68543501e-06      -8.99668711e-07 
       9.58180989e-05      -6.68543501e-06      -8.99668711e-07 
       9.58180989e-05      -6.68543501e-06      -8.99668711e-07 
       9.10222190e-05      -3.34717047e-06      -2.68071232e-05 
       9.10222190e-05      -3.34717047e-06      -2.68071232e-05 
       9.10222190e-05      -3.34717047e-06      -2.68071232e-05 
       9.10222190e-05      -3.34717047e-06      -2.68071232e-05 
       8.38398601e-05      -8.96272048e-09      -3.48659209e-05 
       8.38398601e-05      -8.96272048e-09      -3.48659209e-05 
       8.38398601e-05      -8.96272048e-09      -3.48659209e-05 
       8.38398601e-05      -8.96272048e-09      -3.48659209e-05 
       1.18066701e-04       1.54665842e-05      -3.40207072e-04 
       1.18066701e-04       1.54665842e-05      -3.40207072e-04 
       1.18066701e-04       1.54665842e-05      -3.40207072e-04 
       1.18066701e-04       1.54665842e-05      -3.40207072e-04 
       8.38398601e-05      -8.96272048e-09      -3.48659209e-05 
       8.38398601e-05      -8.96272048e-09      -3.48659209e-05 
       8.38398601e-05      -8.96272048e-09      -3.48659209e-05 
       8.38398601e-05      -8.96272048e-09      -3.48659209e-05 
       1.18066701e-04       1.54665842e-05      -3.40207072e-04 
       1.18066701e-04       1.54665842e-05      -3.40207072e-04 
       1.18066701e-04       1.54665842e-05      -3.40207072e-04 
       1.18066701e-04       1.54665842e-05      -3.40207072e-04 
       1.00953281e-04       7.72881075e-06      -1.87536497e-04 
       1.00953281e-04       7.72881075e-06      -1.87536497e-04 
       1.00953281e-04       7.72881075e-06      -1.87536497e-04 
       1.00953281e-04       7.72881075e-06      -1.87536497e-04 
       8.38398601e-05      -8.96272048e-09      -3.48659209e-05 
       8.38398601e-05      -8.96272048e-09      -3.48659209e-05 
       8.38398601e-05      -8.96272048e-09      -3.48659209e-05 
       8.38398601e-05      -8.96272048e-09      -3.48659209e-05 
       8.27473872e-05       1.18446830e-06      -4.37908252e-05 
       8.27473872e-05       1.18446830e-06      -4.37908252e-05 