# vtk DataFile Version 2.0
./output/Static_Tower/Static_Tower_0010.vtk
ASCII
DATASET UNSTRUCTURED_GRID

POINTS 13260 float
      -4.335799e+00       4.312526e+00      -9.534421e-03 
      -4.309007e+00       4.315349e+00      -9.534421e-03 
      -4.311001e+00       4.334274e+00       9.534421e-03 
      -4.337793e+00       4.331451e+00       9.534421e-03 
      -3.880276e+00      -1.085872e-02       4.328836e+00 
      -3.853485e+00      -8.035915e-03       4.328836e+00 
      -3.855479e+00       1.088893e-02       4.347905e+00 
      -3.882270e+00       8.066127e-03       4.347905e+00 
      -4.321990e+00       4.310018e+00      -1.348371e-02 
      -4.304456e+00       4.325396e+00       0.000000e+00 
      -4.324810e+00       4.336782e+00       1.348371e-02 
      -4.342344e+00       4.321404e+00       0.000000e+00 
      -3.866468e+00      -1.336678e-02       4.324887e+00 
      -3.848933e+00       2.011131e-03       4.338370e+00 
      -3.869288e+00       1.339699e-02       4.351854e+00 
      -3.886822e+00      -1.980919e-03       4.338370e+00 
      -4.108038e+00       2.150834e+00       2.159651e+00 
      -4.081246e+00       2.153657e+00       2.159651e+00 
      -4.083240e+00       2.172581e+00       2.178720e+00 
      -4.110031e+00       2.169759e+00       2.178720e+00 
       4.309007e+00       4.315349e+00      -9.534421e-03 
       4.335799e+00       4.312526e+00      -9.534421e-03 
       4.337793e+00       4.331451e+00       9.534421e-03 
       4.311001e+00       4.334274e+00       9.534421e-03 
       3.853485e+00      -8.035914e-03       4.328836e+00 
       3.880276e+00      -1.085872e-02       4.328836e+00 
       3.882270e+00       8.066126e-03       4.347905e+00 
       3.855478e+00       1.088893e-02       4.347905e+00 
       4.321990e+00       4.310018e+00      -1.348371e-02 
       4.342344e+00       4.321404e+00       0.000000e+00 
       4.324810e+00       4.336782e+00       1.348371e-02 
       4.304456e+00       4.325396e+00       0.000000e+00 
       3.866467e+00      -1.336678e-02       4.324887e+00 
       3.886822e+00      -1.980921e-03       4.338370e+00 
       3.869287e+00       1.339699e-02       4.351854e+00 
       3.848933e+00       2.011133e-03       4.338370e+00 
       4.081246e+00       2.153657e+00       2.159651e+00 
       4.108037e+00       2.150834e+00       2.159651e+00 
       4.110031e+00       2.169759e+00       2.178720e+00 
       4.083240e+00       2.172581e+00       2.178720e+00 
      -4.309007e+00      -4.315349e+00      -9.534454e-03 
      -4.335799e+00      -4.312526e+00      -9.534454e-03 
      -4.337793e+00      -4.331451e+00       9.534454e-03 
      -4.311001e+00      -4.334274e+00       9.534454e-03 
      -3.853485e+00       8.066105e-03       4.328836e+00 
      -3.880276e+00       1.088889e-02       4.328836e+00 
      -3.882270e+00      -8.035893e-03       4.347905e+00 
      -3.855479e+00      -1.085868e-02       4.347905e+00 
      -4.321990e+00      -4.310018e+00      -1.348375e-02 
      -4.342344e+00      -4.321404e+00       0.000000e+00 
      -4.324810e+00      -4.336782e+00       1.348375e-02 
      -4.304456e+00      -4.325396e+00       0.000000e+00 
      -3.866468e+00       1.339695e-02       4.324887e+00 
      -3.886822e+00       2.011117e-03       4.338370e+00 
      -3.869288e+00      -1.336674e-02       4.351854e+00 
      -3.848933e+00      -1.980905e-03       4.338370e+00 
      -4.081246e+00      -2.153641e+00       2.159651e+00 
      -4.108038e+00      -2.150819e+00       2.159651e+00 
      -4.110031e+00      -2.169743e+00       2.178720e+00 
      -4.083240e+00      -2.172566e+00       2.178720e+00 
      -4.315349e+00       4.309007e+00      -9.534434e-03 
      -4.312526e+00       4.335799e+00      -9.534434e-03 
      -4.331451e+00       4.337793e+00       9.534434e-03 
      -4.334274e+00       4.311001e+00       9.534434e-03 
       8.050856e-03       3.853500e+00       4.328838e+00 
       1.087356e-02       3.880292e+00       4.328838e+00 
      -8.051272e-03       3.882286e+00       4.347906e+00 
      -1.087397e-02       3.855494e+00       4.347906e+00 
      -4.310018e+00       4.321990e+00      -1.348373e-02 
      -4.321404e+00       4.342344e+00       0.000000e+00 
      -4.336782e+00       4.324810e+00       1.348373e-02 
      -4.325396e+00       4.304456e+00       0.000000e+00 
       1.338167e-02       3.866483e+00       4.324888e+00 
       1.995744e-03       3.886837e+00       4.338372e+00 
      -1.338208e-02       3.869303e+00       4.351856e+00 
      -1.996160e-03       3.848949e+00       4.338372e+00 
      -2.153649e+00       4.081254e+00       2.159652e+00 
      -2.150826e+00       4.108045e+00       2.159652e+00 
      -2.169751e+00       4.110039e+00       2.178720e+00 
      -2.172574e+00       4.083248e+00       2.178720e+00 
      -4.312526e+00      -4.335799e+00      -9.534441e-03 
      -4.315349e+00      -4.309007e+00      -9.534441e-03 
      -4.334274e+00      -4.311001e+00       9.534441e-03 
      -4.331451e+00      -4.337793e+00       9.534441e-03 
       1.087364e-02      -3.880261e+00       4.328834e+00 
       8.050747e-03      -3.853469e+00       4.328834e+00 
      -1.087406e-02      -3.855463e+00       4.347903e+00 
      -8.051163e-03      -3.882255e+00       4.347903e+00 
      -4.310018e+00      -4.321990e+00      -1.348374e-02 
      -4.325396e+00      -4.304456e+00       0.000000e+00 
      -4.336782e+00      -4.324810e+00       1.348374e-02 
      -4.321404e+00      -4.342344e+00       0.000000e+00 
       1.338165e-02      -3.866452e+00       4.324885e+00 
      -1.996294e-03      -3.848917e+00       4.338369e+00 
      -1.338206e-02      -3.869272e+00       4.351852e+00 
       1.995879e-03      -3.886806e+00       4.338369e+00 
      -2.150826e+00      -4.108030e+00       2.159650e+00 
      -2.153649e+00      -4.081238e+00       2.159650e+00 
      -2.172574e+00      -4.083232e+00       2.178719e+00 
      -2.169751e+00      -4.110024e+00       2.178719e+00 
       4.312526e+00       4.335799e+00      -9.534434e-03 
       4.315349e+00       4.309007e+00      -9.534434e-03 
       4.334274e+00       4.311001e+00       9.534434e-03 
       4.331451e+00       4.337793e+00       9.534434e-03 
      -1.087397e-02       3.880292e+00       4.328838e+00 
      -8.051272e-03       3.853500e+00       4.328838e+00 
       1.087356e-02       3.855494e+00       4.347906e+00 
       8.050856e-03       3.882286e+00       4.347906e+00 
       4.310018e+00       4.321990e+00      -1.348373e-02 
       4.325396e+00       4.304456e+00       0.000000e+00 
       4.336782e+00       4.324810e+00       1.348373e-02 
       4.321404e+00       4.342344e+00       0.000000e+00 
      -1.338208e-02       3.866483e+00       4.324888e+00 
       1.995743e-03       3.848949e+00       4.338372e+00 
       1.338167e-02       3.869303e+00       4.351856e+00 
      -1.996160e-03       3.886837e+00       4.338372e+00 
       2.150826e+00       4.108045e+00       2.159652e+00 
       2.153649e+00       4.081254e+00       2.159652e+00 
       2.172574e+00       4.083248e+00       2.178720e+00 
       2.169751e+00       4.110039e+00       2.178720e+00 
       4.335799e+00      -4.312526e+00      -9.534454e-03 
       4.309007e+00      -4.315349e+00      -9.534454e-03 
       4.311001e+00      -4.334274e+00       9.534454e-03 
       4.337793e+00      -4.331451e+00       9.534454e-03 
       3.880276e+00       1.088889e-02       4.328836e+00 
       3.853485e+00       8.066104e-03       4.328836e+00 
       3.855478e+00      -1.085868e-02       4.347905e+00 
       3.882270e+00      -8.035891e-03       4.347905e+00 
       4.321990e+00      -4.310018e+00      -1.348375e-02 
       4.304456e+00      -4.325396e+00       0.000000e+00 
       4.324810e+00      -4.336782e+00       1.348375e-02 
       4.342344e+00      -4.321404e+00       0.000000e+00 
       3.866467e+00       1.339695e-02       4.324887e+00 
       3.848933e+00      -1.980907e-03       4.338370e+00 
       3.869287e+00      -1.336674e-02       4.351854e+00 
       3.886822e+00       2.011119e-03       4.338370e+00 
       4.108037e+00      -2.150819e+00       2.159651e+00 
       4.081246e+00      -2.153641e+00       2.159651e+00 
       4.083240e+00      -2.172566e+00       2.178720e+00 
       4.110031e+00      -2.169743e+00       2.178720e+00 
       4.315349e+00      -4.309007e+00      -9.534441e-03 
       4.312526e+00      -4.335799e+00      -9.534441e-03 
       4.331451e+00      -4.337793e+00       9.534441e-03 
       4.334274e+00      -4.311001e+00       9.534441e-03 
      -8.051162e-03      -3.853469e+00       4.328834e+00 
      -1.087405e-02      -3.880261e+00       4.328834e+00 
       8.050747e-03      -3.882255e+00       4.347903e+00 
       1.087364e-02      -3.855463e+00       4.347903e+00 
       4.310018e+00      -4.321990e+00      -1.348374e-02 
       4.321404e+00      -4.342344e+00       0.000000e+00 
       4.336782e+00      -4.324810e+00       1.348374e-02 
       4.325396e+00      -4.304456e+00       0.000000e+00 
      -1.338206e-02      -3.866452e+00       4.324885e+00 
      -1.996294e-03      -3.886806e+00       4.338369e+00 
       1.338165e-02      -3.869272e+00       4.351852e+00 
       1.995879e-03      -3.848917e+00       4.338369e+00 
       2.153649e+00      -4.081238e+00       2.159650e+00 
       2.150826e+00      -4.108030e+00       2.159650e+00 
       2.169751e+00      -4.110024e+00       2.178719e+00 
       2.172574e+00      -4.083232e+00       2.178719e+00 
      -4.290298e+00      -4.323580e+00      -3.457839e-03 
      -4.323581e+00      -4.290298e+00      -3.457839e-03 
      -4.356502e+00      -4.323220e+00       3.457839e-03 
      -4.323219e+00      -4.356502e+00       3.457839e-03 
      -3.835034e+00      -3.868297e+00       4.331081e+00 
      -3.868317e+00      -3.835016e+00       4.331081e+00 
      -3.901238e+00      -3.867938e+00       4.337996e+00 
[...]
POINT_DATA     13260 
VECTORS Displacements float
       0.00000000e+00       0.00000000e+00       0.00000000e+00 
       0.00000000e+00       0.00000000e+00       0.00000000e+00 
       0.00000000e+00       0.00000000e+00       0.00000000e+00 
       0.00000000e+00       0.00000000e+00       0.00000000e+00 
       2.23911493e-05       1.51059916e-05      -8.29666910e-04 
       2.23911493e-05       1.51059916e-05      -8.29666910e-04 
       2.23911493e-05       1.51059916e-05      -8.29666910e-04 
       2.23911493e-05       1.51059916e-05      -8.29666910e-04 
       0.00000000e+00       0.00000000e+00       0.00000000e+00 
       0.00000000e+00       0.00000000e+00       0.00000000e+00 
       0.00000000e+00       0.00000000e+00       0.00000000e+00 
       0.00000000e+00       0.00000000e+00       0.00000000e+00 
       2.23911493e-05       1.51059916e-05      -8.29666910e-04 
       2.23911493e-05       1.51059916e-05      -8.29666910e-04 
       2.23911493e-05       1.51059916e-05      -8.29666910e-04 
       2.23911493e-05       1.51059916e-05      -8.29666910e-04 
       1.11955747e-05       7.55299579e-06      -4.14833455e-04 
       1.11955747e-05       7.55299579e-06      -4.14833455e-04 
       1.11955747e-05       7.55299579e-06      -4.14833455e-04 
       1.11955747e-05       7.55299579e-06      -4.14833455e-04 
       0.00000000e+00       0.00000000e+00       0.00000000e+00 
       0.00000000e+00       0.00000000e+00       0.00000000e+00 
       0.00000000e+00       0.00000000e+00       0.00000000e+00 
       0.00000000e+00       0.00000000e+00       0.00000000e+00 
      -2.28072118e-05       1.51062287e-05      -8.29710768e-04 
      -2.28072118e-05       1.51062287e-05      -8.29710768e-04 
      -2.28072118e-05       1.51062287e-05      -8.29710768e-04 
      -2.28072118e-05       1.51062287e-05      -8.29710768e-04 
       0.00000000e+00       0.00000000e+00       0.00000000e+00 
       0.00000000e+00       0.00000000e+00       0.00000000e+00 
       0.00000000e+00       0.00000000e+00       0.00000000e+00 
       0.00000000e+00       0.00000000e+00       0.00000000e+00 
      -2.28072118e-05       1.51062287e-05      -8.29710768e-04 
      -2.28072118e-05       1.51062287e-05      -8.29710768e-04 
      -2.28072118e-05       1.51062287e-05      -8.29710768e-04 
      -2.28072118e-05       1.51062287e-05      -8.29710768e-04 
      -1.14036059e-05       7.55311435e-06      -4.14855384e-04 
      -1.14036059e-05       7.55311435e-06      -4.14855384e-04 
      -1.14036059e-05       7.55311435e-06      -4.14855384e-04 
      -1.14036059e-05       7.55311435e-06      -4.14855384e-04 
       0.00000000e+00       0.00000000e+00       0.00000000e+00 
       0.00000000e+00       0.00000000e+00       0.00000000e+00 
       0.00000000e+00       0.00000000e+00       0.00000000e+00 
       0.00000000e+00       0.00000000e+00       0.00000000e+00 
       2.23911493e-05       1.51059916e-05      -8.29666910e-04 
       2.23911493e-05       1.51059916e-05      -8.29666910e-04 
       2.23911493e-05       1.51059916e-05      -8.29666910e-04 
       2.23911493e-05       1.51059916e-05      -8.29666910e-04 
       0.00000000e+00       0.00000000e+00       0.00000000e+00 
       0.00000000e+00       0.00000000e+00       0.00000000e+00 
       0.00000000e+00       0.00000000e+00       0.00000000e+00 
       0.00000000e+00       0.00000000e+00       0.00000000e+00 
       2.23911493e-05       1.51059916e-05      -8.29666910e-04 
       2.23911493e-05       1.51059916e-05      -8.29666910e-04 
       2.23911493e-05       1.51059916e-05      -8.29666910e-04 
       2.23911493e-05       1.51059916e-05      -8.29666910e-04 
       1.11955747e-05       7.55299579e-06      -4.14833455e-04 
       1.11955747e-05       7.55299579e-06      -4.14833455e-04 
       1.11955747e-05       7.55299579e-06      -4.14833455e-04 
       1.11955747e-05       7.55299579e-06      -4.14833455e-04 
       0.00000000e+00       0.00000000e+00       0.00000000e+00 
       0.00000000e+00       0.00000000e+00       0.00000000e+00 
       0.00000000e+00       0.00000000e+00       0.00000000e+00 
       0.00000000e+00       0.00000000e+00       0.00000000e+00 
      -2.08108775e-07      -7.03337819e-06      -8.28061611e-04 
      -2.08108775e-07      -7.03337819e-06      -8.28061611e-04 
      -2.08108775e-07      -7.03337819e-06      -8.28061611e-04 
      -2.08108775e-07      -7.03337819e-06      -8.28061611e-04 
       0.00000000e+00       0.00000000e+00       0.00000000e+00 
       0.00000000e+00       0.00000000e+00       0.00000000e+00 
       0.00000000e+00       0.00000000e+00       0.00000000e+00 
       0.00000000e+00       0.00000000e+00       0.00000000e+00 
      -2.08108775e-07      -7.03337819e-06      -8.28061611e-04 
      -2.08108775e-07      -7.03337819e-06      -8.28061611e-04 
      -2.08108775e-07      -7.03337819e-06      -8.28061611e-04 
      -2.08108775e-07      -7.03337819e-06      -8.28061611e-04 
      -1.04054387e-07      -3.51668909e-06      -4.14030805e-04 
      -1.04054387e-07      -3.51668909e-06      -4.14030805e-04 
      -1.04054387e-07      -3.51668909e-06      -4.14030805e-04 
      -1.04054387e-07      -3.51668909e-06      -4.14030805e-04 
       0.00000000e+00       0.00000000e+00       0.00000000e+00 
       0.00000000e+00       0.00000000e+00       0.00000000e+00 
       0.00000000e+00       0.00000000e+00       0.00000000e+00 
       0.00000000e+00       0.00000000e+00       0.00000000e+00 
      -2.07848545e-07       3.81647572e-05      -8.31312520e-04 
      -2.07848545e-07       3.81647572e-05      -8.31312520e-04 
      -2.07848545e-07       3.81647572e-05      -8.31312520e-04 
      -2.07848545e-07       3.81647572e-05      -8.31312520e-04 
       0.00000000e+00       0.00000000e+00       0.00000000e+00 
       0.00000000e+00       0.00000000e+00       0.00000000e+00 
       0.00000000e+00       0.00000000e+00       0.00000000e+00 
       0.00000000e+00       0.00000000e+00       0.00000000e+00 
      -2.07848545e-07       3.81647572e-05      -8.31312520e-04 
      -2.07848545e-07       3.81647572e-05      -8.31312520e-04 
      -2.07848545e-07       3.81647572e-05      -8.31312520e-04 
      -2.07848545e-07       3.81647572e-05      -8.31312520e-04 
      -1.03924273e-07       1.90823786e-05      -4.15656260e-04 
      -1.03924273e-07       1.90823786e-05      -4.15656260e-04 
      -1.03924273e-07       1.90823786e-05      -4.15656260e-04 
      -1.03924273e-07       1.90823786e-05      -4.15656260e-04 
       0.00000000e+00       0.00000000e+00       0.00000000e+00 
       0.00000000e+00       0.00000000e+00       0.00000000e+00 
       0.00000000e+00       0.00000000e+00       0.00000000e+00 
       0.00000000e+00       0.00000000e+00       0.00000000e+00 
      -2.08108775e-07      -7.03337819e-06      -8.28061611e-04 
      -2.08108775e-07      -7.03337819e-06      -8.28061611e-04 
      -2.08108775e-07      -7.03337819e-06      -8.28061611e-04 
      -2.08108775e-07      -7.03337819e-06      -8.28061611e-04 
       0.00000000e+00       0.00000000e+00       0.00000000e+00 
       0.00000000e+00       0.00000000e+00       0.00000000e+00 
       0.00000000e+00       0.00000000e+00       0.00000000e+00 
       0.00000000e+00       0.00000000e+00       0.00000000e+00 
      -2.08108775e-07      -7.03337819e-06      -8.28061611e-04 
      -2.08108775e-07      -7.03337819e-06      -8.28061611e-04 
      -2.08108775e-07      -7.03337819e-06      -8.28061611e-04 
      -2.08108775e-07      -7.03337819e-06      -8.28061611e-04 
      -1.04054387e-07      -3.51668909e-06      -4.14030805e-04 
      -1.04054387e-07      -3.51668909e-06      -4.14030805e-04 
      -1.04054387e-07      -3.51668909e-06      -4.14030805e-04 
      -1.04054387e-07      -3.51668909e-06      -4.14030805e-04 
       0.00000000e+00       0.00000000e+00       0.00000000e+00 
       0.00000000e+00       0.00000000e+00       0.00000000e+00 
       0.00000000e+00       0.00000000e+00       0.00000000e+00 
       0.00000000e+00       0.00000000e+00       0.00000000e+00 
      -2.28072118e-05       1.51062287e-05      -8.29710768e-04 
      -2.28072118e-05       1.51062287e-05      -8.29710768e-04 
      -2.28072118e-05       1.51062287e-05      -8.29710768e-04 
      -2.28072118e-05       1.51062287e-05      -8.29710768e-04 
       0.00000000e+00       0.00000000e+00       0.00000000e+00 
       0.00000000e+00       0.00000000e+00       0.00000000e+00 
       0.00000000e+00       0.00000000e+00       0.00000000e+00 
       0.00000000e+00       0.00000000e+00       0.00000000e+00 
      -2.28072118e-05       1.51062287e-05      -8.29710768e-04 
      -2.28072118e-05       1.51062287e-05      -8.29710768e-04 
      -2.28072118e-05       1.51062287e-05      -8.29710768e-04 
      -2.28072118e-05       1.51062287e-05      -8.29710768e-04 
      -1.14036059e-05       7.55311435e-06      -4.14855384e-04 
      -1.14036059e-05       7.55311435e-06      -4.14855384e-04 
      -1.14036059e-05       7.55311435e-06      -4.14855384e-04 
      -1.14036059e-05       7.55311435e-06      -4.14855384e-04 
       0.00000000e+00       0.00000000e+00       0.00000000e+00 
       0.00000000e+00       0.00000000e+00       0.00000000e+00 
       0.00000000e+00       0.00000000e+00       0.00000000e+00 
       0.00000000e+00       0.00000000e+00       0.00000000e+00 
      -2.07848545e-07       3.81647572e-05      -8.31312520e-04 
      -2.07848545e-07       3.81647572e-05      -8.31312520e-04 
      -2.07848545e-07       3.81647572e-05      -8.31312520e-04 
      -2.07848545e-07       3.81647572e-05      -8.31312520e-04 
       0.00000000e+00       0.00000000e+00       0.00000000e+00 
       0.00000000e+00       0.00000000e+00       0.00000000e+00 
       0.00000000e+00       0.00000000e+00       0.00000000e+00 
       0.00000000e+00       0.00000000e+00       0.00000000e+00 
      -2.07848545e-07       3.81647572e-05      -8.31312520e-04 
      -2.07848545e-07       3.81647572e-05      -8.31312520e-04 
      -2.07848545e-07       3.81647572e-05      -8.31312520e-04 
      -2.07848545e-07       3.81647572e-05      -8.31312520e-04 
      -1.03924273e-07       1.90823786e-05      -4.15656260e-04 
      -1.03924273e-07       1.90823786e-05      -4.15656260e-04 
      -1.03924273e-07       1.90823786e-05      -4.15656260e-04 
      -1.03924273e-07       1.90823786e-05      -4.15656260e-04 
       0.00000000e+00       0.00000000e+00       0.00000000e+00 
       0.00000000e+00       0.00000000e+00       0.00000000e+00 
       0.00000000e+00       0.00000000e+00       0.00000000e+00 
       0.00000000e+00       0.00000000e+00       0.00000000e+00 
      -2.36197468e-04      -2.17545788e-04      -4.66143876e-03 
      -2.36197468e-04      -2.17545788e-04      -4.66143876e-03 
      -2.36197468e-04      -2.17545788e-04      -4.66143876e-03 
      -2.36197468e-04      -2.17545788e-04      -4.66143876e-03 
       0.00000000e+00       0.00000000e+00       0.00000000e+00 
       0.00000000e+00       0.00000000e+00       0.00000000e+00 
       0.00000000e+00       0.00000000e+00       0.00000000e+00 
       0.00000000e+00       0.00000000e+00       0.00000000e+00 
      -2.36197468e-04      -2.17545788e-04      -4.66143876e-03 
      -2.36197468e-04      -2.17545788e-04      -4.66143876e-03 
      -2.36197468e-04      -2.17545788e-04      -4.66143876e-03 
      -2.36197468e-04      -2.17545788e-04      -4.66143876e-03 
      -1.18098734e-04      -1.08772894e-04      -2.33071938e-03 
      -1.18098734e-04      -1.08772894e-04      -2.33071938e-03 
      -1.18098734e-04      -1.08772894e-04      -2.33071938e-03 
      -1.18098734e-04      -1.08772894e-04      -2.33071938e-03 
       0.00000000e+00       0.00000000e+00       0.00000000e+00 
       0.00000000e+00       0.00000000e+00       0.00000000e+00 
       0.00000000e+00       0.00000000e+00       0.00000000e+00 
       0.00000000e+00       0.00000000e+00       0.00000000e+00 
       2.35651599e-04      -2.17566789e-04      -4.66195680e-03 
       2.35651599e-04      -2.17566789e-04      -4.66195680e-03 
       2.35651599e-04      -2.17566789e-04      -4.66195680e-03 
       2.35651599e-04      -2.17566789e-04      -4.66195680e-03 
       0.00000000e+00       0.00000000e+00       0.00000000e+00 
       0.00000000e+00       0.00000000e+00       0.00000000e+00 
       0.00000000e+00       0.00000000e+00       0.00000000e+00 
       0.00000000e+00       0.00000000e+00       0.00000000e+00 
       2.35651599e-04      -2.17566789e-04      -4.66195680e-03 
       2.35651599e-04      -2.17566789e-04      -4.66195680e-03 
       2.35651599e-04      -2.17566789e-04      -4.66195680e-03 
       2.35651599e-04      -2.17566789e-04      -4.66195680e-03 
       1.17825800e-04      -1.08783395e-04      -2.33097840e-03 
       1.17825800e-04      -1.08783395e-04      -2.33097840e-03 
       1.17825800e-04      -1.08783395e-04      -2.33097840e-03 
       1.17825800e-04      -1.08783395e-04      -2.33097840e-03 
       0.00000000e+00       0.00000000e+00       0.00000000e+00 
       0.00000000e+00       0.00000000e+00       0.00000000e+00 
       0.00000000e+00       0.00000000e+00       0.00000000e+00 
       0.00000000e+00       0.00000000e+00       0.00000000e+00 
       2.36770044e-04       2.56485887e-04      -4.73381415e-03 
       2.36770044e-04       2.56485887e-04      -4.73381415e-03 
       2.36770044e-04       2.56485887e-04      -4.73381415e-03 
       2.36770044e-04       2.56485887e-04      -4.73381415e-03 
       0.00000000e+00       0.00000000e+00       0.00000000e+00 
       0.00000000e+00       0.00000000e+00       0.00000000e+00 
       0.00000000e+00       0.00000000e+00       0.00000000e+00 
       0.00000000e+00       0.00000000e+00       0.00000000e+00 
       2.36770044e-04       2.56485887e-04      -4.73381415e-03 
       2.36770044e-04       2.56485887e-04      -4.73381415e-03 
       2.36770044e-04       2.56485887e-04      -4.73381415e-03 
       2.36770044e-04       2.56485887e-04      -4.73381415e-03 
       1.18385022e-04       1.28242943e-04      -2.36690707e-03 
       1.18385022e-04       1.28242943e-04      -2.36690707e-03 
       1.18385022e-04       1.28242943e-04      -2.36690707e-03 
       1.18385022e-04       1.28242943e-04      -2.36690707e-03 
       0.00000000e+00       0.00000000e+00       0.00000000e+00 
       0.00000000e+00       0.00000000e+00       0.00000000e+00 
       0.00000000e+00       0.00000000e+00       0.00000000e+00 
       0.00000000e+00       0.00000000e+00       0.00000000e+00 
      -2.37316623e-04       2.56464288e-04      -4.73329610e-03 
      -2.37316623e-04       2.56464288e-04      -4.73329610e-03 
      -2.37316623e-04       2.56464288e-04      -4.73329610e-03 
      -2.37316623e-04       2.56464288e-04      -4.73329610e-03 
       0.00000000e+00       0.00000000e+00       0.00000000e+00 
       0.00000000e+00       0.00000000e+00       0.00000000e+00 
       0.00000000e+00       0.00000000e+00       0.00000000e+00 
       0.00000000e+00       0.00000000e+00       0.00000000e+00 
      -2.37316623e-04       2.56464288e-04      -4.73329610e-03 
      -2.37316623e-04       2.56464288e-04      -4.73329610e-03 
      -2.37316623e-04       2.56464288e-04      -4.73329610e-03 
      -2.37316623e-04       2.56464288e-04      -4.73329610e-03 
      -1.18658311e-04       1.28232144e-04      -2.36664805e-03 
      -1.18658311e-04       1.28232144e-04      -2.36664805e-03 
      -1.18658311e-04       1.28232144e-04      -2.36664805e-03 
      -1.18658311e-04       1.28232144e-04      -2.36664805e-03 
       2.23911493e-05       1.51059916e-05      -8.29666910e-04 
       2.23911493e-05       1.51059916e-05      -8.29666910e-04 
       2.23911493e-05       1.51059916e-05      -8.29666910e-04 
       2.23911493e-05       1.51059916e-05      -8.29666910e-04 
      -2.37316623e-04       2.56464288e-04      -4.73329610e-03 
      -2.37316623e-04       2.56464288e-04      -4.73329610e-03 
      -2.37316623e-04       2.56464288e-04      -4.73329610e-03 
      -2.37316623e-04       2.56464288e-04      -4.73329610e-03 
       2.23911493e-05       1.51059916e-05      -8.29666910e-04 
       2.23911493e-05       1.51059916e-05      -8.29666910e-04 
       2.23911493e-05       1.51059916e-05      -8.29666910e-04 
       2.23911493e-05       1.51059916e-05      -8.29666910e-04 
      -2.37316623e-04       2.56464288e-04      -4.73329610e-03 
      -2.37316623e-04       2.56464288e-04      -4.73329610e-03 
      -2.37316623e-04       2.56464288e-04      -4.73329610e-03 
      -2.37316623e-04       2.56464288e-04      -4.73329610e-03 
      -1.07462737e-04       1.35785140e-04      -2.78148150e-03 
      -1.07462737e-04       1.35785140e-04      -2.78148150e-03 
      -1.07462737e-04       1.35785140e-04      -2.78148150e-03 
      -1.07462737e-04       1.35785140e-04      -2.78148150e-03 
       2.23911493e-05       1.51059916e-05      -8.29666910e-04 
       2.23911493e-05       1.51059916e-05      -8.29666910e-04 
       2.23911493e-05       1.51059916e-05      -8.29666910e-04 
       2.23911493e-05       1.51059916e-05      -8.29666910e-04 
      -2.36197468e-04      -2.17545788e-04      -4.66143876e-03 
      -2.36197468e-04      -2.17545788e-04      -4.66143876e-03 
      -2.36197468e-04      -2.17545788e-04      -4.66143876e-03 
      -2.36197468e-04      -2.17545788e-04      -4.66143876e-03 
       2.23911493e-05       1.51059916e-05      -8.29666910e-04 
       2.23911493e-05       1.51059916e-05      -8.29666910e-04 
       2.23911493e-05       1.51059916e-05      -8.29666910e-04 
       2.23911493e-05       1.51059916e-05      -8.29666910e-04 
      -2.36197468e-04      -2.17545788e-04      -4.66143876e-03 
      -2.36197468e-04      -2.17545788e-04      -4.66143876e-03 
      -2.36197468e-04      -2.17545788e-04      -4.66143876e-03 
      -2.36197468e-04      -2.17545788e-04      -4.66143876e-03 
      -1.06903160e-04      -1.01219898e-04      -2.74555284e-03 
      -1.06903160e-04      -1.01219898e-04      -2.74555284e-03 
      -1.06903160e-04      -1.01219898e-04      -2.74555284e-03 
      -1.06903160e-04      -1.01219898e-04      -2.74555284e-03 
      -2.28072118e-05       1.51062287e-05      -8.29710768e-04 
      -2.28072118e-05       1.51062287e-05      -8.29710768e-04 
      -2.28072118e-05       1.51062287e-05      -8.29710768e-04 
      -2.28072118e-05       1.51062287e-05      -8.29710768e-04 
       2.36770044e-04       2.56485887e-04      -4.73381415e-03 
       2.36770044e-04       2.56485887e-04      -4.73381415e-03 
       2.36770044e-04       2.56485887e-04      -4.73381415e-03 
       2.36770044e-04       2.56485887e-04      -4.73381415e-03 
      -2.28072118e-05       1.51062287e-05      -8.29710768e-04 
      -2.28072118e-05       1.51062287e-05      -8.29710768e-04 
      -2.28072118e-05       1.51062287e-05      -8.29710768e-04 
      -2.28072118e-05       1.51062287e-05      -8.29710768e-04 
       2.36770044e-04       2.56485887e-04      -4.73381415e-03 
       2.36770044e-04       2.56485887e-04      -4.73381415e-03 
       2.36770044e-04       2.56485887e-04      -4.73381415e-03 
       2.36770044e-04       2.56485887e-04      -4.73381415e-03 
       1.06981416e-04       1.35796058e-04      -2.78176246e-03 
       1.06981416e-04       1.35796058e-04      -2.78176246e-03 
       1.06981416e-04       1.35796058e-04      -2.78176246e-03 
       1.06981416e-04       1.35796058e-04      -2.78176246e-03 
      -2.28072118e-05       1.51062287e-05      -8.29710768e-04 
      -2.28072118e-05       1.51062287e-05      -8.29710768e-04 
      -2.28072118e-05       1.51062287e-05      -8.29710768e-04 
      -2.28072118e-05       1.51062287e-05      -8.29710768e-04 
      -2.07848545e-07       3.81647572e-05      -8.31312520e-04 
      -2.07848545e-07       3.81647572e-05      -8.31312520e-04 