# vtk DataFile Version 2.0
./output/Static_Tower/Static_Tower_0009.vtk
ASCII
DATASET UNSTRUCTURED_GRID

POINTS 13260 float
      -4.335797e+00       4.312523e+00      -9.533750e-03 
      -4.309006e+00       4.315351e+00      -9.533750e-03 
      -4.311003e+00       4.334277e+00       9.533750e-03 
      -4.337794e+00       4.331449e+00       9.533750e-03 
      -3.879530e+00      -1.087661e-02       4.329542e+00 
      -3.852739e+00      -8.049254e-03       4.329542e+00 
      -3.854737e+00       1.087659e-02       4.348610e+00 
      -3.881528e+00       8.049237e-03       4.348610e+00 
      -4.321988e+00       4.310017e+00      -1.348276e-02 
      -4.304456e+00       4.325399e+00       0.000000e+00 
      -4.324812e+00       4.336783e+00       1.348276e-02 
      -4.342344e+00       4.321401e+00       0.000000e+00 
      -3.865721e+00      -1.338260e-02       4.325593e+00 
      -3.848189e+00       1.999234e-03       4.339076e+00 
      -3.868546e+00       1.338259e-02       4.352559e+00 
      -3.886077e+00      -1.999252e-03       4.339076e+00 
      -4.107664e+00       2.150823e+00       2.160004e+00 
      -4.080873e+00       2.153651e+00       2.160004e+00 
      -4.082870e+00       2.172577e+00       2.179072e+00 
      -4.109661e+00       2.169749e+00       2.179072e+00 
       4.309009e+00       4.315345e+00      -9.533398e-03 
       4.335801e+00       4.312527e+00      -9.533398e-03 
       4.337791e+00       4.331455e+00       9.533398e-03 
       4.310999e+00       4.334273e+00       9.533398e-03 
       3.854273e+00      -8.054645e-03       4.329703e+00 
       3.881065e+00      -1.087262e-02       4.329703e+00 
       3.883056e+00       8.054627e-03       4.348770e+00 
       3.856264e+00       1.087260e-02       4.348770e+00 
       4.321992e+00       4.310016e+00      -1.348226e-02 
       4.342345e+00       4.321407e+00       0.000000e+00 
       4.324808e+00       4.336784e+00       1.348226e-02 
       4.304455e+00       4.325393e+00       0.000000e+00 
       3.867256e+00      -1.338359e-02       4.325754e+00 
       3.887609e+00      -1.992619e-03       4.339236e+00 
       3.870072e+00       1.338358e-02       4.352719e+00 
       3.849719e+00       1.992600e-03       4.339236e+00 
       4.081641e+00       2.153645e+00       2.160085e+00 
       4.108433e+00       2.150827e+00       2.160085e+00 
       4.110423e+00       2.169755e+00       2.179152e+00 
       4.083632e+00       2.172573e+00       2.179152e+00 
      -4.309006e+00      -4.315351e+00      -9.533750e-03 
      -4.335797e+00      -4.312523e+00      -9.533750e-03 
      -4.337794e+00      -4.331449e+00       9.533750e-03 
      -4.311003e+00      -4.334277e+00       9.533750e-03 
      -3.852739e+00       8.049237e-03       4.329542e+00 
      -3.879530e+00       1.087659e-02       4.329542e+00 
      -3.881528e+00      -8.049254e-03       4.348610e+00 
      -3.854737e+00      -1.087661e-02       4.348610e+00 
      -4.321988e+00      -4.310017e+00      -1.348276e-02 
      -4.342344e+00      -4.321401e+00       0.000000e+00 
      -4.324812e+00      -4.336783e+00       1.348276e-02 
      -4.304456e+00      -4.325399e+00       0.000000e+00 
      -3.865721e+00       1.338259e-02       4.325593e+00 
      -3.886077e+00       1.999234e-03       4.339076e+00 
      -3.868546e+00      -1.338260e-02       4.352559e+00 
      -3.848189e+00      -1.999252e-03       4.339076e+00 
      -4.080873e+00      -2.153651e+00       2.160004e+00 
      -4.107664e+00      -2.150823e+00       2.160004e+00 
      -4.109661e+00      -2.169749e+00       2.179072e+00 
      -4.082870e+00      -2.172577e+00       2.179072e+00 
      -4.315349e+00       4.309008e+00      -9.534384e-03 
      -4.312526e+00       4.335799e+00      -9.534384e-03 
      -4.331451e+00       4.337792e+00       9.534384e-03 
      -4.334274e+00       4.311001e+00       9.534384e-03 
       8.796190e-03       3.853506e+00       4.329622e+00 
       1.161838e-02       3.880298e+00       4.329622e+00 
      -7.306592e-03       3.882291e+00       4.348690e+00 
      -1.012878e-02       3.855500e+00       4.348690e+00 
      -4.310018e+00       4.321990e+00      -1.348366e-02 
      -4.321404e+00       4.342344e+00       0.000000e+00 
      -4.336782e+00       4.324810e+00       1.348366e-02 
      -4.325396e+00       4.304456e+00       0.000000e+00 
       1.412677e-02       3.866489e+00       4.325672e+00 
       2.740385e-03       3.886843e+00       4.339156e+00 
      -1.263717e-02       3.869308e+00       4.352640e+00 
      -1.250787e-03       3.848954e+00       4.339156e+00 
      -2.153276e+00       4.081257e+00       2.160044e+00 
      -2.150454e+00       4.108048e+00       2.160044e+00 
      -2.169379e+00       4.110042e+00       2.179112e+00 
      -2.172201e+00       4.083250e+00       2.179112e+00 
      -4.312526e+00      -4.335799e+00      -9.534384e-03 
      -4.315349e+00      -4.309008e+00      -9.534384e-03 
      -4.334274e+00      -4.311001e+00       9.534384e-03 
      -4.331451e+00      -4.337792e+00       9.534384e-03 
       1.161838e-02      -3.880298e+00       4.329622e+00 
       8.796190e-03      -3.853506e+00       4.329622e+00 
      -1.012878e-02      -3.855500e+00       4.348690e+00 
      -7.306593e-03      -3.882291e+00       4.348690e+00 
      -4.310018e+00      -4.321990e+00      -1.348366e-02 
      -4.325396e+00      -4.304456e+00       0.000000e+00 
      -4.336782e+00      -4.324810e+00       1.348366e-02 
      -4.321404e+00      -4.342344e+00       0.000000e+00 
       1.412677e-02      -3.866489e+00       4.325672e+00 
      -1.250788e-03      -3.848954e+00       4.339156e+00 
      -1.263717e-02      -3.869308e+00       4.352640e+00 
       2.740385e-03      -3.886843e+00       4.339156e+00 
      -2.150454e+00      -4.108048e+00       2.160044e+00 
      -2.153276e+00      -4.081257e+00       2.160044e+00 
      -2.172201e+00      -4.083250e+00       2.179112e+00 
      -2.169379e+00      -4.110042e+00       2.179112e+00 
       4.312524e+00       4.335798e+00      -9.532763e-03 
       4.315348e+00       4.309007e+00      -9.532763e-03 
       4.334276e+00       4.311002e+00       9.532763e-03 
       4.331452e+00       4.337793e+00       9.532763e-03 
      -1.013084e-02       3.880297e+00       4.329623e+00 
      -7.307691e-03       3.853506e+00       4.329623e+00 
       1.162044e-02       3.855500e+00       4.348689e+00 
       8.797289e-03       3.882292e+00       4.348689e+00 
       4.310016e+00       4.321990e+00      -1.348136e-02 
       4.325396e+00       4.304456e+00       0.000000e+00 
       4.336784e+00       4.324810e+00       1.348136e-02 
       4.321404e+00       4.342344e+00       0.000000e+00 
      -1.263941e-02       3.866488e+00       4.325675e+00 
       2.741065e-03       3.848954e+00       4.339156e+00 
       1.412901e-02       3.869309e+00       4.352637e+00 
      -1.251468e-03       3.886843e+00       4.339156e+00 
       2.151197e+00       4.108048e+00       2.160045e+00 
       2.154020e+00       4.081256e+00       2.160045e+00 
       2.172948e+00       4.083251e+00       2.179111e+00 
       2.170125e+00       4.110042e+00       2.179111e+00 
       4.335801e+00      -4.312527e+00      -9.533398e-03 
       4.309009e+00      -4.315345e+00      -9.533398e-03 
       4.310999e+00      -4.334273e+00       9.533398e-03 
       4.337791e+00      -4.331455e+00       9.533398e-03 
       3.881065e+00       1.087260e-02       4.329703e+00 
       3.854273e+00       8.054627e-03       4.329703e+00 
       3.856264e+00      -1.087262e-02       4.348770e+00 
       3.883056e+00      -8.054645e-03       4.348770e+00 
       4.321992e+00      -4.310016e+00      -1.348226e-02 
       4.304455e+00      -4.325393e+00       0.000000e+00 
       4.324808e+00      -4.336784e+00       1.348226e-02 
       4.342345e+00      -4.321407e+00       0.000000e+00 
       3.867256e+00       1.338358e-02       4.325754e+00 
       3.849719e+00      -1.992619e-03       4.339236e+00 
       3.870072e+00      -1.338359e-02       4.352719e+00 
       3.887609e+00       1.992600e-03       4.339236e+00 
       4.108433e+00      -2.150827e+00       2.160085e+00 
       4.081641e+00      -2.153645e+00       2.160085e+00 
       4.083632e+00      -2.172573e+00       2.179152e+00 
       4.110423e+00      -2.169755e+00       2.179152e+00 
       4.315348e+00      -4.309007e+00      -9.532763e-03 
       4.312524e+00      -4.335798e+00      -9.532763e-03 
       4.331452e+00      -4.337793e+00       9.532763e-03 
       4.334276e+00      -4.311002e+00       9.532763e-03 
      -7.307692e-03      -3.853506e+00       4.329623e+00 
      -1.013084e-02      -3.880297e+00       4.329623e+00 
       8.797289e-03      -3.882292e+00       4.348689e+00 
       1.162044e-02      -3.855500e+00       4.348689e+00 
       4.310016e+00      -4.321990e+00      -1.348136e-02 
       4.321404e+00      -4.342344e+00       0.000000e+00 
       4.336784e+00      -4.324810e+00       1.348136e-02 
       4.325396e+00      -4.304456e+00       0.000000e+00 
      -1.263941e-02      -3.866488e+00       4.325675e+00 
      -1.251468e-03      -3.886843e+00       4.339156e+00 
       1.412901e-02      -3.869309e+00       4.352637e+00 
       2.741065e-03      -3.848954e+00       4.339156e+00 
       2.154020e+00      -4.081256e+00       2.160045e+00 
       2.151197e+00      -4.108048e+00       2.160045e+00 
       2.170125e+00      -4.110042e+00       2.179111e+00 
       2.172948e+00      -4.083251e+00       2.179111e+00 
      -4.290298e+00      -4.323614e+00      -3.458489e-03 
      -4.323547e+00      -4.290298e+00      -3.458489e-03 
      -4.356502e+00      -4.323186e+00       3.458489e-03 
      -4.323253e+00      -4.356502e+00       3.458489e-03 
      -3.833845e+00      -3.868082e+00       4.337097e+00 
      -3.867094e+00      -3.834766e+00       4.337097e+00 
      -3.900048e+00      -3.867654e+00       4.344014e+00 
[...]
POINT_DATA     13260 
VECTORS Displacements float
       0.00000000e+00       0.00000000e+00       0.00000000e+00 
       0.00000000e+00       0.00000000e+00       0.00000000e+00 
       0.00000000e+00       0.00000000e+00       0.00000000e+00 
       0.00000000e+00       0.00000000e+00       0.00000000e+00 
       7.66559620e-04      -8.68593375e-09      -1.24239718e-04 
       7.66559620e-04      -8.68593375e-09      -1.24239718e-04 
       7.66559620e-04      -8.68593375e-09      -1.24239718e-04 
       7.66559620e-04      -8.68593375e-09      -1.24239718e-04 
       0.00000000e+00       0.00000000e+00       0.00000000e+00 
       0.00000000e+00       0.00000000e+00       0.00000000e+00 
       0.00000000e+00       0.00000000e+00       0.00000000e+00 
       0.00000000e+00       0.00000000e+00       0.00000000e+00 
       7.66559620e-04      -8.68593375e-09      -1.24239718e-04 
       7.66559620e-04      -8.68593375e-09      -1.24239718e-04 
       7.66559620e-04      -8.68593375e-09      -1.24239718e-04 
       7.66559620e-04      -8.68593375e-09      -1.24239718e-04 
       3.83279810e-04      -4.34296687e-09      -6.21198590e-05 
       3.83279810e-04      -4.34296687e-09      -6.21198590e-05 
       3.83279810e-04      -4.34296687e-09      -6.21198590e-05 
       3.83279810e-04      -4.34296687e-09      -6.21198590e-05 
       0.00000000e+00       0.00000000e+00       0.00000000e+00 
       0.00000000e+00       0.00000000e+00       0.00000000e+00 
       0.00000000e+00       0.00000000e+00       0.00000000e+00 
       0.00000000e+00       0.00000000e+00       0.00000000e+00 
       7.64180025e-04      -9.18446588e-09       3.64214366e-05 
       7.64180025e-04      -9.18446588e-09       3.64214366e-05 
       7.64180025e-04      -9.18446588e-09       3.64214366e-05 
       7.64180025e-04      -9.18446588e-09       3.64214366e-05 
       0.00000000e+00       0.00000000e+00       0.00000000e+00 
       0.00000000e+00       0.00000000e+00       0.00000000e+00 
       0.00000000e+00       0.00000000e+00       0.00000000e+00 
       0.00000000e+00       0.00000000e+00       0.00000000e+00 
       7.64180025e-04      -9.18446588e-09       3.64214366e-05 
       7.64180025e-04      -9.18446588e-09       3.64214366e-05 
       7.64180025e-04      -9.18446588e-09       3.64214366e-05 
       7.64180025e-04      -9.18446588e-09       3.64214366e-05 
       3.82090012e-04      -4.59223294e-09       1.82107183e-05 
       3.82090012e-04      -4.59223294e-09       1.82107183e-05 
       3.82090012e-04      -4.59223294e-09       1.82107183e-05 
       3.82090012e-04      -4.59223294e-09       1.82107183e-05 
       0.00000000e+00       0.00000000e+00       0.00000000e+00 
       0.00000000e+00       0.00000000e+00       0.00000000e+00 
       0.00000000e+00       0.00000000e+00       0.00000000e+00 
       0.00000000e+00       0.00000000e+00       0.00000000e+00 
       7.66559620e-04      -8.68593375e-09      -1.24239718e-04 
       7.66559620e-04      -8.68593375e-09      -1.24239718e-04 
       7.66559620e-04      -8.68593375e-09      -1.24239718e-04 
       7.66559620e-04      -8.68593375e-09      -1.24239718e-04 
       0.00000000e+00       0.00000000e+00       0.00000000e+00 
       0.00000000e+00       0.00000000e+00       0.00000000e+00 
       0.00000000e+00       0.00000000e+00       0.00000000e+00 
       0.00000000e+00       0.00000000e+00       0.00000000e+00 
       7.66559620e-04      -8.68593375e-09      -1.24239718e-04 
       7.66559620e-04      -8.68593375e-09      -1.24239718e-04 
       7.66559620e-04      -8.68593375e-09      -1.24239718e-04 
       7.66559620e-04      -8.68593375e-09      -1.24239718e-04 
       3.83279810e-04      -4.34296687e-09      -6.21198590e-05 
       3.83279810e-04      -4.34296687e-09      -6.21198590e-05 
       3.83279810e-04      -4.34296687e-09      -6.21198590e-05 
       3.83279810e-04      -4.34296687e-09      -6.21198590e-05 
       0.00000000e+00       0.00000000e+00       0.00000000e+00 
       0.00000000e+00       0.00000000e+00       0.00000000e+00 
       0.00000000e+00       0.00000000e+00       0.00000000e+00 
       0.00000000e+00       0.00000000e+00       0.00000000e+00 
       7.44798961e-04      -1.21195246e-06      -4.40326019e-05 
       7.44798961e-04      -1.21195246e-06      -4.40326019e-05 
       7.44798961e-04      -1.21195246e-06      -4.40326019e-05 
       7.44798961e-04      -1.21195246e-06      -4.40326019e-05 
       0.00000000e+00       0.00000000e+00       0.00000000e+00 
       0.00000000e+00       0.00000000e+00       0.00000000e+00 
       0.00000000e+00       0.00000000e+00       0.00000000e+00 
       0.00000000e+00       0.00000000e+00       0.00000000e+00 
       7.44798961e-04      -1.21195246e-06      -4.40326019e-05 
       7.44798961e-04      -1.21195246e-06      -4.40326019e-05 
       7.44798961e-04      -1.21195246e-06      -4.40326019e-05 
       7.44798961e-04      -1.21195246e-06      -4.40326019e-05 
       3.72399480e-04      -6.05976229e-07      -2.20163009e-05 
       3.72399480e-04      -6.05976229e-07      -2.20163009e-05 
       3.72399480e-04      -6.05976229e-07      -2.20163009e-05 
       3.72399480e-04      -6.05976229e-07      -2.20163009e-05 
       0.00000000e+00       0.00000000e+00       0.00000000e+00 
       0.00000000e+00       0.00000000e+00       0.00000000e+00 
       0.00000000e+00       0.00000000e+00       0.00000000e+00 
       0.00000000e+00       0.00000000e+00       0.00000000e+00 
       7.44798523e-04       1.19408172e-06      -4.40307255e-05 
       7.44798523e-04       1.19408172e-06      -4.40307255e-05 
       7.44798523e-04       1.19408172e-06      -4.40307255e-05 
       7.44798523e-04       1.19408172e-06      -4.40307255e-05 
       0.00000000e+00       0.00000000e+00       0.00000000e+00 
       0.00000000e+00       0.00000000e+00       0.00000000e+00 
       0.00000000e+00       0.00000000e+00       0.00000000e+00 
       0.00000000e+00       0.00000000e+00       0.00000000e+00 
       7.44798523e-04       1.19408172e-06      -4.40307255e-05 
       7.44798523e-04       1.19408172e-06      -4.40307255e-05 
       7.44798523e-04       1.19408172e-06      -4.40307255e-05 
       7.44798523e-04       1.19408172e-06      -4.40307255e-05 
       3.72399262e-04       5.97040858e-07      -2.20153627e-05 
       3.72399262e-04       5.97040858e-07      -2.20153627e-05 
       3.72399262e-04       5.97040858e-07      -2.20153627e-05 
       3.72399262e-04       5.97040858e-07      -2.20153627e-05 
       0.00000000e+00       0.00000000e+00       0.00000000e+00 
       0.00000000e+00       0.00000000e+00       0.00000000e+00 
       0.00000000e+00       0.00000000e+00       0.00000000e+00 
       0.00000000e+00       0.00000000e+00       0.00000000e+00 
       7.44798961e-04      -1.21195246e-06      -4.40326019e-05 
       7.44798961e-04      -1.21195246e-06      -4.40326019e-05 
       7.44798961e-04      -1.21195246e-06      -4.40326019e-05 
       7.44798961e-04      -1.21195246e-06      -4.40326019e-05 
       0.00000000e+00       0.00000000e+00       0.00000000e+00 
       0.00000000e+00       0.00000000e+00       0.00000000e+00 
       0.00000000e+00       0.00000000e+00       0.00000000e+00 
       0.00000000e+00       0.00000000e+00       0.00000000e+00 
       7.44798961e-04      -1.21195246e-06      -4.40326019e-05 
       7.44798961e-04      -1.21195246e-06      -4.40326019e-05 
       7.44798961e-04      -1.21195246e-06      -4.40326019e-05 
       7.44798961e-04      -1.21195246e-06      -4.40326019e-05 
       3.72399480e-04      -6.05976229e-07      -2.20163009e-05 
       3.72399480e-04      -6.05976229e-07      -2.20163009e-05 
       3.72399480e-04      -6.05976229e-07      -2.20163009e-05 
       3.72399480e-04      -6.05976229e-07      -2.20163009e-05 
       0.00000000e+00       0.00000000e+00       0.00000000e+00 
       0.00000000e+00       0.00000000e+00       0.00000000e+00 
       0.00000000e+00       0.00000000e+00       0.00000000e+00 
       0.00000000e+00       0.00000000e+00       0.00000000e+00 
       7.64180025e-04      -9.18446588e-09       3.64214366e-05 
       7.64180025e-04      -9.18446588e-09       3.64214366e-05 
       7.64180025e-04      -9.18446588e-09       3.64214366e-05 
       7.64180025e-04      -9.18446588e-09       3.64214366e-05 
       0.00000000e+00       0.00000000e+00       0.00000000e+00 
       0.00000000e+00       0.00000000e+00       0.00000000e+00 
       0.00000000e+00       0.00000000e+00       0.00000000e+00 
       0.00000000e+00       0.00000000e+00       0.00000000e+00 
       7.64180025e-04      -9.18446588e-09       3.64214366e-05 
       7.64180025e-04      -9.18446588e-09       3.64214366e-05 
       7.64180025e-04      -9.18446588e-09       3.64214366e-05 
       7.64180025e-04      -9.18446588e-09       3.64214366e-05 
       3.82090012e-04      -4.59223294e-09       1.82107183e-05 
       3.82090012e-04      -4.59223294e-09       1.82107183e-05 
       3.82090012e-04      -4.59223294e-09       1.82107183e-05 
       3.82090012e-04      -4.59223294e-09       1.82107183e-05 
       0.00000000e+00       0.00000000e+00       0.00000000e+00 
       0.00000000e+00       0.00000000e+00       0.00000000e+00 
       0.00000000e+00       0.00000000e+00       0.00000000e+00 
       0.00000000e+00       0.00000000e+00       0.00000000e+00 
       7.44798523e-04       1.19408172e-06      -4.40307255e-05 
       7.44798523e-04       1.19408172e-06      -4.40307255e-05 
       7.44798523e-04       1.19408172e-06      -4.40307255e-05 
       7.44798523e-04       1.19408172e-06      -4.40307255e-05 
       0.00000000e+00       0.00000000e+00       0.00000000e+00 
       0.00000000e+00       0.00000000e+00       0.00000000e+00 
       0.00000000e+00       0.00000000e+00       0.00000000e+00 
       0.00000000e+00       0.00000000e+00       0.00000000e+00 
       7.44798523e-04       1.19408172e-06      -4.40307255e-05 
       7.44798523e-04       1.19408172e-06      -4.40307255e-05 
       7.44798523e-04       1.19408172e-06      -4.40307255e-05 
       7.44798523e-04       1.19408172e-06      -4.40307255e-05 
       3.72399262e-04       5.97040858e-07      -2.20153627e-05 
       3.72399262e-04       5.97040858e-07      -2.20153627e-05 
       3.72399262e-04       5.97040858e-07      -2.20153627e-05 
       3.72399262e-04       5.97040858e-07      -2.20153627e-05 
       0.00000000e+00       0.00000000e+00       0.00000000e+00 
       0.00000000e+00       0.00000000e+00       0.00000000e+00 
       0.00000000e+00       0.00000000e+00       0.00000000e+00 
       0.00000000e+00       0.00000000e+00       0.00000000e+00 
       9.53040848e-04       3.18659565e-05       1.35561715e-03 
       9.53040848e-04       3.18659565e-05       1.35561715e-03 
       9.53040848e-04       3.18659565e-05       1.35561715e-03 
       9.53040848e-04       3.18659565e-05       1.35561715e-03 
       0.00000000e+00       0.00000000e+00       0.00000000e+00 
       0.00000000e+00       0.00000000e+00       0.00000000e+00 
       0.00000000e+00       0.00000000e+00       0.00000000e+00 
       0.00000000e+00       0.00000000e+00       0.00000000e+00 
       9.53040848e-04       3.18659565e-05       1.35561715e-03 
       9.53040848e-04       3.18659565e-05       1.35561715e-03 
       9.53040848e-04       3.18659565e-05       1.35561715e-03 
       9.53040848e-04       3.18659565e-05       1.35561715e-03 
       4.76520424e-04       1.59329782e-05       6.77808573e-04 
       4.76520424e-04       1.59329782e-05       6.77808573e-04 
       4.76520424e-04       1.59329782e-05       6.77808573e-04 
       4.76520424e-04       1.59329782e-05       6.77808573e-04 
       0.00000000e+00       0.00000000e+00       0.00000000e+00 
       0.00000000e+00       0.00000000e+00       0.00000000e+00 
       0.00000000e+00       0.00000000e+00       0.00000000e+00 
       0.00000000e+00       0.00000000e+00       0.00000000e+00 
       9.72100971e-04      -4.72102861e-05      -1.69777310e-03 
       9.72100971e-04      -4.72102861e-05      -1.69777310e-03 
       9.72100971e-04      -4.72102861e-05      -1.69777310e-03 
       9.72100971e-04      -4.72102861e-05      -1.69777310e-03 
       0.00000000e+00       0.00000000e+00       0.00000000e+00 
       0.00000000e+00       0.00000000e+00       0.00000000e+00 
       0.00000000e+00       0.00000000e+00       0.00000000e+00 
       0.00000000e+00       0.00000000e+00       0.00000000e+00 
       9.72100971e-04      -4.72102861e-05      -1.69777310e-03 
       9.72100971e-04      -4.72102861e-05      -1.69777310e-03 
       9.72100971e-04      -4.72102861e-05      -1.69777310e-03 
       9.72100971e-04      -4.72102861e-05      -1.69777310e-03 
       4.86050485e-04      -2.36051430e-05      -8.48886549e-04 
       4.86050485e-04      -2.36051430e-05      -8.48886549e-04 
       4.86050485e-04      -2.36051430e-05      -8.48886549e-04 
       4.86050485e-04      -2.36051430e-05      -8.48886549e-04 
       0.00000000e+00       0.00000000e+00       0.00000000e+00 
       0.00000000e+00       0.00000000e+00       0.00000000e+00 
       0.00000000e+00       0.00000000e+00       0.00000000e+00 
       0.00000000e+00       0.00000000e+00       0.00000000e+00 
       9.72102608e-04       4.71861545e-05      -1.69779563e-03 
       9.72102608e-04       4.71861545e-05      -1.69779563e-03 
       9.72102608e-04       4.71861545e-05      -1.69779563e-03 
       9.72102608e-04       4.71861545e-05      -1.69779563e-03 
       0.00000000e+00       0.00000000e+00       0.00000000e+00 
       0.00000000e+00       0.00000000e+00       0.00000000e+00 
       0.00000000e+00       0.00000000e+00       0.00000000e+00 
       0.00000000e+00       0.00000000e+00       0.00000000e+00 
       9.72102608e-04       4.71861545e-05      -1.69779563e-03 
       9.72102608e-04       4.71861545e-05      -1.69779563e-03 
       9.72102608e-04       4.71861545e-05      -1.69779563e-03 
       9.72102608e-04       4.71861545e-05      -1.69779563e-03 
       4.86051304e-04       2.35930773e-05      -8.48897817e-04 
       4.86051304e-04       2.35930773e-05      -8.48897817e-04 
       4.86051304e-04       2.35930773e-05      -8.48897817e-04 
       4.86051304e-04       2.35930773e-05      -8.48897817e-04 
       0.00000000e+00       0.00000000e+00       0.00000000e+00 
       0.00000000e+00       0.00000000e+00       0.00000000e+00 
       0.00000000e+00       0.00000000e+00       0.00000000e+00 
       0.00000000e+00       0.00000000e+00       0.00000000e+00 
       9.53040299e-04      -3.18887177e-05       1.35559468e-03 
       9.53040299e-04      -3.18887177e-05       1.35559468e-03 
       9.53040299e-04      -3.18887177e-05       1.35559468e-03 
       9.53040299e-04      -3.18887177e-05       1.35559468e-03 
       0.00000000e+00       0.00000000e+00       0.00000000e+00 
       0.00000000e+00       0.00000000e+00       0.00000000e+00 
       0.00000000e+00       0.00000000e+00       0.00000000e+00 
       0.00000000e+00       0.00000000e+00       0.00000000e+00 
       9.53040299e-04      -3.18887177e-05       1.35559468e-03 
       9.53040299e-04      -3.18887177e-05       1.35559468e-03 
       9.53040299e-04      -3.18887177e-05       1.35559468e-03 
       9.53040299e-04      -3.18887177e-05       1.35559468e-03 
       4.76520149e-04      -1.59443589e-05       6.77797340e-04 
       4.76520149e-04      -1.59443589e-05       6.77797340e-04 
       4.76520149e-04      -1.59443589e-05       6.77797340e-04 
       4.76520149e-04      -1.59443589e-05       6.77797340e-04 
       7.66559620e-04      -8.68593375e-09      -1.24239718e-04 
       7.66559620e-04      -8.68593375e-09      -1.24239718e-04 
       7.66559620e-04      -8.68593375e-09      -1.24239718e-04 
       7.66559620e-04      -8.68593375e-09      -1.24239718e-04 
       9.53040299e-04      -3.18887177e-05       1.35559468e-03 
       9.53040299e-04      -3.18887177e-05       1.35559468e-03 
       9.53040299e-04      -3.18887177e-05       1.35559468e-03 
       9.53040299e-04      -3.18887177e-05       1.35559468e-03 
       7.66559620e-04      -8.68593375e-09      -1.24239718e-04 
       7.66559620e-04      -8.68593375e-09      -1.24239718e-04 
       7.66559620e-04      -8.68593375e-09      -1.24239718e-04 
       7.66559620e-04      -8.68593375e-09      -1.24239718e-04 
       9.53040299e-04      -3.18887177e-05       1.35559468e-03 
       9.53040299e-04      -3.18887177e-05       1.35559468e-03 
       9.53040299e-04      -3.18887177e-05       1.35559468e-03 
       9.53040299e-04      -3.18887177e-05       1.35559468e-03 
       8.59799959e-04      -1.59487018e-05       6.15677481e-04 
       8.59799959e-04      -1.59487018e-05       6.15677481e-04 
       8.59799959e-04      -1.59487018e-05       6.15677481e-04 
       8.59799959e-04      -1.59487018e-05       6.15677481e-04 
       7.66559620e-04      -8.68593375e-09      -1.24239718e-04 
       7.66559620e-04      -8.68593375e-09      -1.24239718e-04 
       7.66559620e-04      -8.68593375e-09      -1.24239718e-04 
       7.66559620e-04      -8.68593375e-09      -1.24239718e-04 
       9.53040848e-04       3.18659565e-05       1.35561715e-03 
       9.53040848e-04       3.18659565e-05       1.35561715e-03 
       9.53040848e-04       3.18659565e-05       1.35561715e-03 
       9.53040848e-04       3.18659565e-05       1.35561715e-03 
       7.66559620e-04      -8.68593375e-09      -1.24239718e-04 
       7.66559620e-04      -8.68593375e-09      -1.24239718e-04 
       7.66559620e-04      -8.68593375e-09      -1.24239718e-04 
       7.66559620e-04      -8.68593375e-09      -1.24239718e-04 
       9.53040848e-04       3.18659565e-05       1.35561715e-03 
       9.53040848e-04       3.18659565e-05       1.35561715e-03 
       9.53040848e-04       3.18659565e-05       1.35561715e-03 
       9.53040848e-04       3.18659565e-05       1.35561715e-03 
       8.59800234e-04       1.59286353e-05       6.15688714e-04 
       8.59800234e-04       1.59286353e-05       6.15688714e-04 
       8.59800234e-04       1.59286353e-05       6.15688714e-04 
       8.59800234e-04       1.59286353e-05       6.15688714e-04 
       7.64180025e-04      -9.18446588e-09       3.64214366e-05 
       7.64180025e-04      -9.18446588e-09       3.64214366e-05 
       7.64180025e-04      -9.18446588e-09       3.64214366e-05 
       7.64180025e-04      -9.18446588e-09       3.64214366e-05 
       9.72102608e-04       4.71861545e-05      -1.69779563e-03 
       9.72102608e-04       4.71861545e-05      -1.69779563e-03 
       9.72102608e-04       4.71861545e-05      -1.69779563e-03 
       9.72102608e-04       4.71861545e-05      -1.69779563e-03 
       7.64180025e-04      -9.18446588e-09       3.64214366e-05 
       7.64180025e-04      -9.18446588e-09       3.64214366e-05 
       7.64180025e-04      -9.18446588e-09       3.64214366e-05 
       7.64180025e-04      -9.18446588e-09       3.64214366e-05 
       9.72102608e-04       4.71861545e-05      -1.69779563e-03 
       9.72102608e-04       4.71861545e-05      -1.69779563e-03 
       9.72102608e-04       4.71861545e-05      -1.69779563e-03 
       9.72102608e-04       4.71861545e-05      -1.69779563e-03 
       8.68141316e-04       2.35884850e-05      -8.30687098e-04 
       8.68141316e-04       2.35884850e-05      -8.30687098e-04 
       8.68141316e-04       2.35884850e-05      -8.30687098e-04 
       8.68141316e-04       2.35884850e-05      -8.30687098e-04 
       7.64180025e-04      -9.18446588e-09       3.64214366e-05 
       7.64180025e-04      -9.18446588e-09       3.64214366e-05 
       7.64180025e-04      -9.18446588e-09       3.64214366e-05 
       7.64180025e-04      -9.18446588e-09       3.64214366e-05 
       7.44798523e-04       1.19408172e-06      -4.40307255e-05 
       7.44798523e-04       1.19408172e-06      -4.40307255e-05 