# vtk DataFile Version 2.0
./output/Static_Tower/Static_Tower_0002.vtk
ASCII
DATASET UNSTRUCTURED_GRID

POINTS 13260 float
      -4.335799e+00       4.312526e+00      -9.533919e-03 
      -4.309007e+00       4.315348e+00      -9.533919e-03 
      -4.311001e+00       4.334274e+00       9.533919e-03 
      -4.337793e+00       4.331452e+00       9.533919e-03 
      -3.880289e+00      -1.087437e-02       4.329308e+00 
      -3.853498e+00      -8.051652e-03       4.329308e+00 
      -3.855492e+00       1.087420e-02       4.348376e+00 
      -3.882283e+00       8.051486e-03       4.348376e+00 
      -4.321990e+00       4.310017e+00      -1.348300e-02 
      -4.304456e+00       4.325396e+00       0.000000e+00 
      -4.324810e+00       4.336783e+00       1.348300e-02 
      -4.342344e+00       4.321404e+00       0.000000e+00 
      -3.866480e+00      -1.338268e-02       4.325359e+00 
      -3.848946e+00       1.995880e-03       4.338842e+00 
      -3.869300e+00       1.338252e-02       4.352325e+00 
      -3.886835e+00      -1.996046e-03       4.338842e+00 
      -4.108044e+00       2.150826e+00       2.159887e+00 
      -4.081252e+00       2.153648e+00       2.159887e+00 
      -4.083246e+00       2.172574e+00       2.178955e+00 
      -4.110038e+00       2.169752e+00       2.178955e+00 
       4.309007e+00       4.315348e+00      -9.533919e-03 
       4.335799e+00       4.312526e+00      -9.533919e-03 
       4.337793e+00       4.331452e+00       9.533919e-03 
       4.311001e+00       4.334274e+00       9.533919e-03 
       3.853497e+00      -8.051652e-03       4.329308e+00 
       3.880289e+00      -1.087437e-02       4.329308e+00 
       3.882283e+00       8.051485e-03       4.348376e+00 
       3.855491e+00       1.087420e-02       4.348376e+00 
       4.321990e+00       4.310017e+00      -1.348300e-02 
       4.342344e+00       4.321404e+00       0.000000e+00 
       4.324810e+00       4.336783e+00       1.348300e-02 
       4.304456e+00       4.325396e+00       0.000000e+00 
       3.866480e+00      -1.338268e-02       4.325359e+00 
       3.886835e+00      -1.996047e-03       4.338842e+00 
       3.869300e+00       1.338252e-02       4.352325e+00 
       3.848946e+00       1.995880e-03       4.338842e+00 
       4.081252e+00       2.153648e+00       2.159887e+00 
       4.108044e+00       2.150826e+00       2.159887e+00 
       4.110038e+00       2.169752e+00       2.178955e+00 
       4.083246e+00       2.172574e+00       2.178955e+00 
      -4.309007e+00      -4.315348e+00      -9.533919e-03 
      -4.335799e+00      -4.312526e+00      -9.533919e-03 
      -4.337793e+00      -4.331452e+00       9.533919e-03 
      -4.311001e+00      -4.334274e+00       9.533919e-03 
      -3.853498e+00       8.051486e-03       4.329308e+00 
      -3.880289e+00       1.087420e-02       4.329308e+00 
      -3.882283e+00      -8.051652e-03       4.348376e+00 
      -3.855492e+00      -1.087437e-02       4.348376e+00 
      -4.321990e+00      -4.310017e+00      -1.348300e-02 
      -4.342344e+00      -4.321404e+00       0.000000e+00 
      -4.324810e+00      -4.336783e+00       1.348300e-02 
      -4.304456e+00      -4.325396e+00       0.000000e+00 
      -3.866480e+00       1.338252e-02       4.325359e+00 
      -3.886835e+00       1.995880e-03       4.338842e+00 
      -3.869300e+00      -1.338268e-02       4.352325e+00 
      -3.848946e+00      -1.996046e-03       4.338842e+00 
      -4.081252e+00      -2.153648e+00       2.159887e+00 
      -4.108044e+00      -2.150826e+00       2.159887e+00 
      -4.110038e+00      -2.169752e+00       2.178955e+00 
      -4.083246e+00      -2.172574e+00       2.178955e+00 
      -4.315348e+00       4.309007e+00      -9.533919e-03 
      -4.312526e+00       4.335799e+00      -9.533919e-03 
      -4.331452e+00       4.337793e+00       9.533919e-03 
      -4.334274e+00       4.311001e+00       9.533919e-03 
       8.051485e-03       3.853497e+00       4.329308e+00 
       1.087420e-02       3.880289e+00       4.329308e+00 
      -8.051652e-03       3.882283e+00       4.348376e+00 
      -1.087437e-02       3.855491e+00       4.348376e+00 
      -4.310017e+00       4.321990e+00      -1.348300e-02 
      -4.321404e+00       4.342344e+00       0.000000e+00 
      -4.336783e+00       4.324810e+00       1.348300e-02 
      -4.325396e+00       4.304456e+00       0.000000e+00 
       1.338252e-02       3.866480e+00       4.325359e+00 
       1.995880e-03       3.886835e+00       4.338842e+00 
      -1.338268e-02       3.869300e+00       4.352325e+00 
      -1.996047e-03       3.848946e+00       4.338842e+00 
      -2.153648e+00       4.081252e+00       2.159887e+00 
      -2.150826e+00       4.108044e+00       2.159887e+00 
      -2.169752e+00       4.110038e+00       2.178955e+00 
      -2.172574e+00       4.083246e+00       2.178955e+00 
      -4.312526e+00      -4.335799e+00      -9.533919e-03 
      -4.315348e+00      -4.309007e+00      -9.533919e-03 
      -4.334274e+00      -4.311001e+00       9.533919e-03 
      -4.331452e+00      -4.337793e+00       9.533919e-03 
       1.087420e-02      -3.880289e+00       4.329308e+00 
       8.051486e-03      -3.853498e+00       4.329308e+00 
      -1.087437e-02      -3.855492e+00       4.348376e+00 
      -8.051652e-03      -3.882283e+00       4.348376e+00 
      -4.310017e+00      -4.321990e+00      -1.348300e-02 
      -4.325396e+00      -4.304456e+00       0.000000e+00 
      -4.336783e+00      -4.324810e+00       1.348300e-02 
      -4.321404e+00      -4.342344e+00       0.000000e+00 
       1.338252e-02      -3.866480e+00       4.325359e+00 
      -1.996046e-03      -3.848946e+00       4.338842e+00 
      -1.338268e-02      -3.869300e+00       4.352325e+00 
       1.995880e-03      -3.886835e+00       4.338842e+00 
      -2.150826e+00      -4.108044e+00       2.159887e+00 
      -2.153648e+00      -4.081252e+00       2.159887e+00 
      -2.172574e+00      -4.083246e+00       2.178955e+00 
      -2.169752e+00      -4.110038e+00       2.178955e+00 
       4.312526e+00       4.335799e+00      -9.533919e-03 
       4.315348e+00       4.309007e+00      -9.533919e-03 
       4.334274e+00       4.311001e+00       9.533919e-03 
       4.331452e+00       4.337793e+00       9.533919e-03 
      -1.087437e-02       3.880289e+00       4.329308e+00 
      -8.051652e-03       3.853497e+00       4.329308e+00 
       1.087420e-02       3.855491e+00       4.348376e+00 
       8.051485e-03       3.882283e+00       4.348376e+00 
       4.310017e+00       4.321990e+00      -1.348300e-02 
       4.325396e+00       4.304456e+00       0.000000e+00 
       4.336783e+00       4.324810e+00       1.348300e-02 
       4.321404e+00       4.342344e+00       0.000000e+00 
      -1.338268e-02       3.866480e+00       4.325359e+00 
       1.995880e-03       3.848946e+00       4.338842e+00 
       1.338252e-02       3.869300e+00       4.352325e+00 
      -1.996047e-03       3.886835e+00       4.338842e+00 
       2.150826e+00       4.108044e+00       2.159887e+00 
       2.153648e+00       4.081252e+00       2.159887e+00 
       2.172574e+00       4.083246e+00       2.178955e+00 
       2.169752e+00       4.110038e+00       2.178955e+00 
       4.335799e+00      -4.312526e+00      -9.533919e-03 
       4.309007e+00      -4.315348e+00      -9.533919e-03 
       4.311001e+00      -4.334274e+00       9.533919e-03 
       4.337793e+00      -4.331452e+00       9.533919e-03 
       3.880289e+00       1.087420e-02       4.329308e+00 
       3.853497e+00       8.051485e-03       4.329308e+00 
       3.855491e+00      -1.087437e-02       4.348376e+00 
       3.882283e+00      -8.051652e-03       4.348376e+00 
       4.321990e+00      -4.310017e+00      -1.348300e-02 
       4.304456e+00      -4.325396e+00       0.000000e+00 
       4.324810e+00      -4.336783e+00       1.348300e-02 
       4.342344e+00      -4.321404e+00       0.000000e+00 
       3.866480e+00       1.338252e-02       4.325359e+00 
       3.848946e+00      -1.996047e-03       4.338842e+00 
       3.869300e+00      -1.338268e-02       4.352325e+00 
       3.886835e+00       1.995881e-03       4.338842e+00 
       4.108044e+00      -2.150826e+00       2.159887e+00 
       4.081252e+00      -2.153648e+00       2.159887e+00 
       4.083246e+00      -2.172574e+00       2.178955e+00 
       4.110038e+00      -2.169752e+00       2.178955e+00 
       4.315348e+00      -4.309007e+00      -9.533919e-03 
       4.312526e+00      -4.335799e+00      -9.533919e-03 
       4.331452e+00      -4.337793e+00       9.533919e-03 
       4.334274e+00      -4.311001e+00       9.533919e-03 
      -8.051652e-03      -3.853498e+00       4.329308e+00 
      -1.087437e-02      -3.880289e+00       4.329308e+00 
       8.051485e-03      -3.882283e+00       4.348376e+00 
       1.087420e-02      -3.855492e+00       4.348376e+00 
       4.310017e+00      -4.321990e+00      -1.348300e-02 
       4.321404e+00      -4.342344e+00       0.000000e+00 
       4.336783e+00      -4.324810e+00       1.348300e-02 
       4.325396e+00      -4.304456e+00       0.000000e+00 
      -1.338268e-02      -3.866480e+00       4.325359e+00 
      -1.996046e-03      -3.886835e+00       4.338842e+00 
       1.338252e-02      -3.869300e+00       4.352325e+00 
       1.995880e-03      -3.848946e+00       4.338842e+00 
       2.153648e+00      -4.081252e+00       2.159887e+00 
       2.150826e+00      -4.108044e+00       2.159887e+00 
       2.169752e+00      -4.110038e+00       2.178955e+00 
       2.172574e+00      -4.083246e+00       2.178955e+00 
      -4.290298e+00      -4.323580e+00      -3.456644e-03 
      -4.323580e+00      -4.290298e+00      -3.456644e-03 
      -4.356502e+00      -4.323220e+00       3.456644e-03 
      -4.323220e+00      -4.356502e+00       3.456644e-03 
      -3.834904e+00      -3.868187e+00       4.333763e+00 
      -3.868187e+00      -3.834904e+00       4.333763e+00 
      -3.901108e+00      -3.867826e+00       4.340676e+00 
[...]
POINT_DATA     13260 
VECTORS Displacements float
       0.00000000e+00       0.00000000e+00       0.00000000e+00 
       0.00000000e+00       0.00000000e+00       0.00000000e+00 
       0.00000000e+00       0.00000000e+00       0.00000000e+00 
       0.00000000e+00       0.00000000e+00       0.00000000e+00 
       9.66933002e-06      -8.32877132e-08      -3.57951065e-04 
       9.66933002e-06      -8.32877132e-08      -3.57951065e-04 
       9.66933002e-06      -8.32877132e-08      -3.57951065e-04 
       9.66933002e-06      -8.32877132e-08      -3.57951065e-04 
       0.00000000e+00       0.00000000e+00       0.00000000e+00 
       0.00000000e+00       0.00000000e+00       0.00000000e+00 
       0.00000000e+00       0.00000000e+00       0.00000000e+00 
       0.00000000e+00       0.00000000e+00       0.00000000e+00 
       9.66933002e-06      -8.32877132e-08      -3.57951065e-04 
       9.66933002e-06      -8.32877132e-08      -3.57951065e-04 
       9.66933002e-06      -8.32877132e-08      -3.57951065e-04 
       9.66933002e-06      -8.32877132e-08      -3.57951065e-04 
       4.83466501e-06      -4.16438566e-08      -1.78975533e-04 
       4.83466501e-06      -4.16438566e-08      -1.78975533e-04 
       4.83466501e-06      -4.16438566e-08      -1.78975533e-04 
       4.83466501e-06      -4.16438566e-08      -1.78975533e-04 
       0.00000000e+00       0.00000000e+00       0.00000000e+00 
       0.00000000e+00       0.00000000e+00       0.00000000e+00 
       0.00000000e+00       0.00000000e+00       0.00000000e+00 
       0.00000000e+00       0.00000000e+00       0.00000000e+00 
      -9.83603661e-06      -8.32872530e-08      -3.57968598e-04 
      -9.83603661e-06      -8.32872530e-08      -3.57968598e-04 
      -9.83603661e-06      -8.32872530e-08      -3.57968598e-04 
      -9.83603661e-06      -8.32872530e-08      -3.57968598e-04 
       0.00000000e+00       0.00000000e+00       0.00000000e+00 
       0.00000000e+00       0.00000000e+00       0.00000000e+00 
       0.00000000e+00       0.00000000e+00       0.00000000e+00 
       0.00000000e+00       0.00000000e+00       0.00000000e+00 
      -9.83603661e-06      -8.32872530e-08      -3.57968598e-04 
      -9.83603661e-06      -8.32872530e-08      -3.57968598e-04 
      -9.83603661e-06      -8.32872530e-08      -3.57968598e-04 
      -9.83603661e-06      -8.32872530e-08      -3.57968598e-04 
      -4.91801831e-06      -4.16436265e-08      -1.78984299e-04 
      -4.91801831e-06      -4.16436265e-08      -1.78984299e-04 
      -4.91801831e-06      -4.16436265e-08      -1.78984299e-04 
      -4.91801831e-06      -4.16436265e-08      -1.78984299e-04 
       0.00000000e+00       0.00000000e+00       0.00000000e+00 
       0.00000000e+00       0.00000000e+00       0.00000000e+00 
       0.00000000e+00       0.00000000e+00       0.00000000e+00 
       0.00000000e+00       0.00000000e+00       0.00000000e+00 
       9.66933002e-06      -8.32877132e-08      -3.57951065e-04 
       9.66933002e-06      -8.32877132e-08      -3.57951065e-04 
       9.66933002e-06      -8.32877132e-08      -3.57951065e-04 
       9.66933002e-06      -8.32877132e-08      -3.57951065e-04 
       0.00000000e+00       0.00000000e+00       0.00000000e+00 
       0.00000000e+00       0.00000000e+00       0.00000000e+00 
       0.00000000e+00       0.00000000e+00       0.00000000e+00 
       0.00000000e+00       0.00000000e+00       0.00000000e+00 
       9.66933002e-06      -8.32877132e-08      -3.57951065e-04 
       9.66933002e-06      -8.32877132e-08      -3.57951065e-04 
       9.66933002e-06      -8.32877132e-08      -3.57951065e-04 
       9.66933002e-06      -8.32877132e-08      -3.57951065e-04 
       4.83466501e-06      -4.16438566e-08      -1.78975533e-04 
       4.83466501e-06      -4.16438566e-08      -1.78975533e-04 
       4.83466501e-06      -4.16438566e-08      -1.78975533e-04 
       4.83466501e-06      -4.16438566e-08      -1.78975533e-04 
       0.00000000e+00       0.00000000e+00       0.00000000e+00 
       0.00000000e+00       0.00000000e+00       0.00000000e+00 
       0.00000000e+00       0.00000000e+00       0.00000000e+00 
       0.00000000e+00       0.00000000e+00       0.00000000e+00 
      -8.33438959e-08      -9.83598554e-06      -3.57968682e-04 
      -8.33438959e-08      -9.83598554e-06      -3.57968682e-04 
      -8.33438959e-08      -9.83598554e-06      -3.57968682e-04 
      -8.33438959e-08      -9.83598554e-06      -3.57968682e-04 
       0.00000000e+00       0.00000000e+00       0.00000000e+00 
       0.00000000e+00       0.00000000e+00       0.00000000e+00 
       0.00000000e+00       0.00000000e+00       0.00000000e+00 
       0.00000000e+00       0.00000000e+00       0.00000000e+00 
      -8.33438959e-08      -9.83598554e-06      -3.57968682e-04 
      -8.33438959e-08      -9.83598554e-06      -3.57968682e-04 
      -8.33438959e-08      -9.83598554e-06      -3.57968682e-04 
      -8.33438959e-08      -9.83598554e-06      -3.57968682e-04 
      -4.16719479e-08      -4.91799277e-06      -1.78984341e-04 
      -4.16719479e-08      -4.91799277e-06      -1.78984341e-04 
      -4.16719479e-08      -4.91799277e-06      -1.78984341e-04 
      -4.16719479e-08      -4.91799277e-06      -1.78984341e-04 
       0.00000000e+00       0.00000000e+00       0.00000000e+00 
       0.00000000e+00       0.00000000e+00       0.00000000e+00 
       0.00000000e+00       0.00000000e+00       0.00000000e+00 
       0.00000000e+00       0.00000000e+00       0.00000000e+00 
      -8.33443558e-08       9.66939225e-06      -3.57951162e-04 
      -8.33443558e-08       9.66939225e-06      -3.57951162e-04 
      -8.33443558e-08       9.66939225e-06      -3.57951162e-04 
      -8.33443558e-08       9.66939225e-06      -3.57951162e-04 
       0.00000000e+00       0.00000000e+00       0.00000000e+00 
       0.00000000e+00       0.00000000e+00       0.00000000e+00 
       0.00000000e+00       0.00000000e+00       0.00000000e+00 
       0.00000000e+00       0.00000000e+00       0.00000000e+00 
      -8.33443558e-08       9.66939225e-06      -3.57951162e-04 
      -8.33443558e-08       9.66939225e-06      -3.57951162e-04 
      -8.33443558e-08       9.66939225e-06      -3.57951162e-04 
      -8.33443558e-08       9.66939225e-06      -3.57951162e-04 
      -4.16721779e-08       4.83469612e-06      -1.78975581e-04 
      -4.16721779e-08       4.83469612e-06      -1.78975581e-04 
      -4.16721779e-08       4.83469612e-06      -1.78975581e-04 
      -4.16721779e-08       4.83469612e-06      -1.78975581e-04 
       0.00000000e+00       0.00000000e+00       0.00000000e+00 
       0.00000000e+00       0.00000000e+00       0.00000000e+00 
       0.00000000e+00       0.00000000e+00       0.00000000e+00 
       0.00000000e+00       0.00000000e+00       0.00000000e+00 
      -8.33438959e-08      -9.83598554e-06      -3.57968682e-04 
      -8.33438959e-08      -9.83598554e-06      -3.57968682e-04 
      -8.33438959e-08      -9.83598554e-06      -3.57968682e-04 
      -8.33438959e-08      -9.83598554e-06      -3.57968682e-04 
       0.00000000e+00       0.00000000e+00       0.00000000e+00 
       0.00000000e+00       0.00000000e+00       0.00000000e+00 
       0.00000000e+00       0.00000000e+00       0.00000000e+00 
       0.00000000e+00       0.00000000e+00       0.00000000e+00 
      -8.33438959e-08      -9.83598554e-06      -3.57968682e-04 
      -8.33438959e-08      -9.83598554e-06      -3.57968682e-04 
      -8.33438959e-08      -9.83598554e-06      -3.57968682e-04 
      -8.33438959e-08      -9.83598554e-06      -3.57968682e-04 
      -4.16719479e-08      -4.91799277e-06      -1.78984341e-04 
      -4.16719479e-08      -4.91799277e-06      -1.78984341e-04 
      -4.16719479e-08      -4.91799277e-06      -1.78984341e-04 
      -4.16719479e-08      -4.91799277e-06      -1.78984341e-04 
       0.00000000e+00       0.00000000e+00       0.00000000e+00 
       0.00000000e+00       0.00000000e+00       0.00000000e+00 
       0.00000000e+00       0.00000000e+00       0.00000000e+00 
       0.00000000e+00       0.00000000e+00       0.00000000e+00 
      -9.83603661e-06      -8.32872530e-08      -3.57968598e-04 
      -9.83603661e-06      -8.32872530e-08      -3.57968598e-04 
      -9.83603661e-06      -8.32872530e-08      -3.57968598e-04 
      -9.83603661e-06      -8.32872530e-08      -3.57968598e-04 
       0.00000000e+00       0.00000000e+00       0.00000000e+00 
       0.00000000e+00       0.00000000e+00       0.00000000e+00 
       0.00000000e+00       0.00000000e+00       0.00000000e+00 
       0.00000000e+00       0.00000000e+00       0.00000000e+00 
      -9.83603661e-06      -8.32872530e-08      -3.57968598e-04 
      -9.83603661e-06      -8.32872530e-08      -3.57968598e-04 
      -9.83603661e-06      -8.32872530e-08      -3.57968598e-04 
      -9.83603661e-06      -8.32872530e-08      -3.57968598e-04 
      -4.91801831e-06      -4.16436265e-08      -1.78984299e-04 
      -4.91801831e-06      -4.16436265e-08      -1.78984299e-04 
      -4.91801831e-06      -4.16436265e-08      -1.78984299e-04 
      -4.91801831e-06      -4.16436265e-08      -1.78984299e-04 
       0.00000000e+00       0.00000000e+00       0.00000000e+00 
       0.00000000e+00       0.00000000e+00       0.00000000e+00 
       0.00000000e+00       0.00000000e+00       0.00000000e+00 
       0.00000000e+00       0.00000000e+00       0.00000000e+00 
      -8.33443558e-08       9.66939225e-06      -3.57951162e-04 
      -8.33443558e-08       9.66939225e-06      -3.57951162e-04 
      -8.33443558e-08       9.66939225e-06      -3.57951162e-04 
      -8.33443558e-08       9.66939225e-06      -3.57951162e-04 
       0.00000000e+00       0.00000000e+00       0.00000000e+00 
       0.00000000e+00       0.00000000e+00       0.00000000e+00 
       0.00000000e+00       0.00000000e+00       0.00000000e+00 
       0.00000000e+00       0.00000000e+00       0.00000000e+00 
      -8.33443558e-08       9.66939225e-06      -3.57951162e-04 
      -8.33443558e-08       9.66939225e-06      -3.57951162e-04 
      -8.33443558e-08       9.66939225e-06      -3.57951162e-04 
      -8.33443558e-08       9.66939225e-06      -3.57951162e-04 
      -4.16721779e-08       4.83469612e-06      -1.78975581e-04 
      -4.16721779e-08       4.83469612e-06      -1.78975581e-04 
      -4.16721779e-08       4.83469612e-06      -1.78975581e-04 
      -4.16721779e-08       4.83469612e-06      -1.78975581e-04 
       0.00000000e+00       0.00000000e+00       0.00000000e+00 
       0.00000000e+00       0.00000000e+00       0.00000000e+00 
       0.00000000e+00       0.00000000e+00       0.00000000e+00 
       0.00000000e+00       0.00000000e+00       0.00000000e+00 
      -1.06204721e-04      -1.06137581e-04      -1.98020721e-03 
      -1.06204721e-04      -1.06137581e-04      -1.98020721e-03 
      -1.06204721e-04      -1.06137581e-04      -1.98020721e-03 
      -1.06204721e-04      -1.06137581e-04      -1.98020721e-03 
       0.00000000e+00       0.00000000e+00       0.00000000e+00 
       0.00000000e+00       0.00000000e+00       0.00000000e+00 
       0.00000000e+00       0.00000000e+00       0.00000000e+00 
       0.00000000e+00       0.00000000e+00       0.00000000e+00 
      -1.06204721e-04      -1.06137581e-04      -1.98020721e-03 
      -1.06204721e-04      -1.06137581e-04      -1.98020721e-03 
      -1.06204721e-04      -1.06137581e-04      -1.98020721e-03 
      -1.06204721e-04      -1.06137581e-04      -1.98020721e-03 
      -5.31023605e-05      -5.30687906e-05      -9.90103605e-04 
      -5.31023605e-05      -5.30687906e-05      -9.90103605e-04 
      -5.31023605e-05      -5.30687906e-05      -9.90103605e-04 
      -5.31023605e-05      -5.30687906e-05      -9.90103605e-04 
       0.00000000e+00       0.00000000e+00       0.00000000e+00 
       0.00000000e+00       0.00000000e+00       0.00000000e+00 
       0.00000000e+00       0.00000000e+00       0.00000000e+00 
       0.00000000e+00       0.00000000e+00       0.00000000e+00 
       1.05985944e-04      -1.06147190e-04      -1.98041619e-03 
       1.05985944e-04      -1.06147190e-04      -1.98041619e-03 
       1.05985944e-04      -1.06147190e-04      -1.98041619e-03 
       1.05985944e-04      -1.06147190e-04      -1.98041619e-03 
       0.00000000e+00       0.00000000e+00       0.00000000e+00 
       0.00000000e+00       0.00000000e+00       0.00000000e+00 
       0.00000000e+00       0.00000000e+00       0.00000000e+00 
       0.00000000e+00       0.00000000e+00       0.00000000e+00 
       1.05985944e-04      -1.06147190e-04      -1.98041619e-03 
       1.05985944e-04      -1.06147190e-04      -1.98041619e-03 
       1.05985944e-04      -1.06147190e-04      -1.98041619e-03 
       1.05985944e-04      -1.06147190e-04      -1.98041619e-03 
       5.29929721e-05      -5.30735949e-05      -9.90208094e-04 
       5.29929721e-05      -5.30735949e-05      -9.90208094e-04 
       5.29929721e-05      -5.30735949e-05      -9.90208094e-04 
       5.29929721e-05      -5.30735949e-05      -9.90208094e-04 
       0.00000000e+00       0.00000000e+00       0.00000000e+00 
       0.00000000e+00       0.00000000e+00       0.00000000e+00 
       0.00000000e+00       0.00000000e+00       0.00000000e+00 
       0.00000000e+00       0.00000000e+00       0.00000000e+00 
       1.05995434e-04       1.05928564e-04      -1.98062503e-03 
       1.05995434e-04       1.05928564e-04      -1.98062503e-03 
       1.05995434e-04       1.05928564e-04      -1.98062503e-03 
       1.05995434e-04       1.05928564e-04      -1.98062503e-03 
       0.00000000e+00       0.00000000e+00       0.00000000e+00 
       0.00000000e+00       0.00000000e+00       0.00000000e+00 
       0.00000000e+00       0.00000000e+00       0.00000000e+00 
       0.00000000e+00       0.00000000e+00       0.00000000e+00 
       1.05995434e-04       1.05928564e-04      -1.98062503e-03 
       1.05995434e-04       1.05928564e-04      -1.98062503e-03 
       1.05995434e-04       1.05928564e-04      -1.98062503e-03 
       1.05995434e-04       1.05928564e-04      -1.98062503e-03 
       5.29977171e-05       5.29642818e-05      -9.90312517e-04 
       5.29977171e-05       5.29642818e-05      -9.90312517e-04 
       5.29977171e-05       5.29642818e-05      -9.90312517e-04 
       5.29977171e-05       5.29642818e-05      -9.90312517e-04 
       0.00000000e+00       0.00000000e+00       0.00000000e+00 
       0.00000000e+00       0.00000000e+00       0.00000000e+00 
       0.00000000e+00       0.00000000e+00       0.00000000e+00 
       0.00000000e+00       0.00000000e+00       0.00000000e+00 
      -1.06214209e-04       1.05918953e-04      -1.98041606e-03 
      -1.06214209e-04       1.05918953e-04      -1.98041606e-03 
      -1.06214209e-04       1.05918953e-04      -1.98041606e-03 
      -1.06214209e-04       1.05918953e-04      -1.98041606e-03 
       0.00000000e+00       0.00000000e+00       0.00000000e+00 
       0.00000000e+00       0.00000000e+00       0.00000000e+00 
       0.00000000e+00       0.00000000e+00       0.00000000e+00 
       0.00000000e+00       0.00000000e+00       0.00000000e+00 
      -1.06214209e-04       1.05918953e-04      -1.98041606e-03 
      -1.06214209e-04       1.05918953e-04      -1.98041606e-03 
      -1.06214209e-04       1.05918953e-04      -1.98041606e-03 
      -1.06214209e-04       1.05918953e-04      -1.98041606e-03 
      -5.31071045e-05       5.29594765e-05      -9.90208029e-04 
      -5.31071045e-05       5.29594765e-05      -9.90208029e-04 
      -5.31071045e-05       5.29594765e-05      -9.90208029e-04 
      -5.31071045e-05       5.29594765e-05      -9.90208029e-04 
       9.66933002e-06      -8.32877132e-08      -3.57951065e-04 
       9.66933002e-06      -8.32877132e-08      -3.57951065e-04 
       9.66933002e-06      -8.32877132e-08      -3.57951065e-04 
       9.66933002e-06      -8.32877132e-08      -3.57951065e-04 
      -1.06214209e-04       1.05918953e-04      -1.98041606e-03 
      -1.06214209e-04       1.05918953e-04      -1.98041606e-03 
      -1.06214209e-04       1.05918953e-04      -1.98041606e-03 
      -1.06214209e-04       1.05918953e-04      -1.98041606e-03 
       9.66933002e-06      -8.32877132e-08      -3.57951065e-04 
       9.66933002e-06      -8.32877132e-08      -3.57951065e-04 
       9.66933002e-06      -8.32877132e-08      -3.57951065e-04 
       9.66933002e-06      -8.32877132e-08      -3.57951065e-04 
      -1.06214209e-04       1.05918953e-04      -1.98041606e-03 
      -1.06214209e-04       1.05918953e-04      -1.98041606e-03 
      -1.06214209e-04       1.05918953e-04      -1.98041606e-03 
      -1.06214209e-04       1.05918953e-04      -1.98041606e-03 
      -4.82724395e-05       5.29178327e-05      -1.16918356e-03 
      -4.82724395e-05       5.29178327e-05      -1.16918356e-03 
      -4.82724395e-05       5.29178327e-05      -1.16918356e-03 
      -4.82724395e-05       5.29178327e-05      -1.16918356e-03 
       9.66933002e-06      -8.32877132e-08      -3.57951065e-04 
       9.66933002e-06      -8.32877132e-08      -3.57951065e-04 
       9.66933002e-06      -8.32877132e-08      -3.57951065e-04 
       9.66933002e-06      -8.32877132e-08      -3.57951065e-04 
      -1.06204721e-04      -1.06137581e-04      -1.98020721e-03 
      -1.06204721e-04      -1.06137581e-04      -1.98020721e-03 
      -1.06204721e-04      -1.06137581e-04      -1.98020721e-03 
      -1.06204721e-04      -1.06137581e-04      -1.98020721e-03 
       9.66933002e-06      -8.32877132e-08      -3.57951065e-04 
       9.66933002e-06      -8.32877132e-08      -3.57951065e-04 
       9.66933002e-06      -8.32877132e-08      -3.57951065e-04 
       9.66933002e-06      -8.32877132e-08      -3.57951065e-04 
      -1.06204721e-04      -1.06137581e-04      -1.98020721e-03 
      -1.06204721e-04      -1.06137581e-04      -1.98020721e-03 
      -1.06204721e-04      -1.06137581e-04      -1.98020721e-03 
      -1.06204721e-04      -1.06137581e-04      -1.98020721e-03 
      -4.82676955e-05      -5.31104344e-05      -1.16907914e-03 
      -4.82676955e-05      -5.31104344e-05      -1.16907914e-03 
      -4.82676955e-05      -5.31104344e-05      -1.16907914e-03 
      -4.82676955e-05      -5.31104344e-05      -1.16907914e-03 
      -9.83603661e-06      -8.32872530e-08      -3.57968598e-04 
      -9.83603661e-06      -8.32872530e-08      -3.57968598e-04 
      -9.83603661e-06      -8.32872530e-08      -3.57968598e-04 
      -9.83603661e-06      -8.32872530e-08      -3.57968598e-04 
       1.05995434e-04       1.05928564e-04      -1.98062503e-03 
       1.05995434e-04       1.05928564e-04      -1.98062503e-03 
       1.05995434e-04       1.05928564e-04      -1.98062503e-03 
       1.05995434e-04       1.05928564e-04      -1.98062503e-03 
      -9.83603661e-06      -8.32872530e-08      -3.57968598e-04 
      -9.83603661e-06      -8.32872530e-08      -3.57968598e-04 
      -9.83603661e-06      -8.32872530e-08      -3.57968598e-04 
      -9.83603661e-06      -8.32872530e-08      -3.57968598e-04 
       1.05995434e-04       1.05928564e-04      -1.98062503e-03 
       1.05995434e-04       1.05928564e-04      -1.98062503e-03 
       1.05995434e-04       1.05928564e-04      -1.98062503e-03 
       1.05995434e-04       1.05928564e-04      -1.98062503e-03 
       4.80796988e-05       5.29226382e-05      -1.16929682e-03 
       4.80796988e-05       5.29226382e-05      -1.16929682e-03 
       4.80796988e-05       5.29226382e-05      -1.16929682e-03 
       4.80796988e-05       5.29226382e-05      -1.16929682e-03 
      -9.83603661e-06      -8.32872530e-08      -3.57968598e-04 
      -9.83603661e-06      -8.32872530e-08      -3.57968598e-04 
      -9.83603661e-06      -8.32872530e-08      -3.57968598e-04 
      -9.83603661e-06      -8.32872530e-08      -3.57968598e-04 
      -8.33443558e-08       9.66939225e-06      -3.57951162e-04 
      -8.33443558e-08       9.66939225e-06      -3.57951162e-04 