# vtk DataFile Version 2.0
./output/Static_Tower/Static_Tower_0006.vtk
ASCII
DATASET UNSTRUCTURED_GRID

POINTS 13260 float
      -4.335799e+00       4.312526e+00      -9.534611e-03 
      -4.309007e+00       4.315349e+00      -9.534611e-03 
      -4.311001e+00       4.334274e+00       9.534611e-03 
      -4.337793e+00       4.331451e+00       9.534611e-03 
      -3.880272e+00      -1.087390e-02       4.328678e+00 
      -3.853481e+00      -8.051076e-03       4.328678e+00 
      -3.855475e+00       1.087339e-02       4.347748e+00 
      -3.882266e+00       8.050571e-03       4.347748e+00 
      -4.321990e+00       4.310018e+00      -1.348398e-02 
      -4.304456e+00       4.325396e+00       0.000000e+00 
      -4.324810e+00       4.336782e+00       1.348398e-02 
      -4.342344e+00       4.321404e+00       0.000000e+00 
      -3.866463e+00      -1.338187e-02       4.324729e+00 
      -3.848929e+00       1.995784e-03       4.338213e+00 
      -3.869283e+00       1.338137e-02       4.351697e+00 
      -3.886818e+00      -1.996289e-03       4.338213e+00 
      -4.108035e+00       2.150826e+00       2.159572e+00 
      -4.081244e+00       2.153649e+00       2.159572e+00 
      -4.083238e+00       2.172574e+00       2.178641e+00 
      -4.110029e+00       2.169751e+00       2.178641e+00 
       4.309007e+00       4.315349e+00      -9.534611e-03 
       4.335799e+00       4.312526e+00      -9.534611e-03 
       4.337793e+00       4.331451e+00       9.534611e-03 
       4.311001e+00       4.334274e+00       9.534611e-03 
       3.853480e+00      -8.051075e-03       4.328678e+00 
       3.880272e+00      -1.087390e-02       4.328678e+00 
       3.882266e+00       8.050569e-03       4.347748e+00 
       3.855474e+00       1.087339e-02       4.347748e+00 
       4.321990e+00       4.310018e+00      -1.348398e-02 
       4.342344e+00       4.321404e+00       0.000000e+00 
       4.324810e+00       4.336782e+00       1.348398e-02 
       4.304456e+00       4.325396e+00       0.000000e+00 
       3.866463e+00      -1.338187e-02       4.324729e+00 
       3.886817e+00      -1.996292e-03       4.338213e+00 
       3.869283e+00       1.338137e-02       4.351697e+00 
       3.848928e+00       1.995786e-03       4.338213e+00 
       4.081244e+00       2.153649e+00       2.159572e+00 
       4.108035e+00       2.150826e+00       2.159572e+00 
       4.110029e+00       2.169751e+00       2.178641e+00 
       4.083238e+00       2.172574e+00       2.178641e+00 
      -4.309007e+00      -4.315349e+00      -9.534610e-03 
      -4.335799e+00      -4.312526e+00      -9.534610e-03 
      -4.337793e+00      -4.331451e+00       9.534610e-03 
      -4.311001e+00      -4.334274e+00       9.534610e-03 
      -3.853481e+00       8.050571e-03       4.328678e+00 
      -3.880272e+00       1.087339e-02       4.328678e+00 
      -3.882266e+00      -8.051077e-03       4.347748e+00 
      -3.855475e+00      -1.087390e-02       4.347748e+00 
      -4.321990e+00      -4.310018e+00      -1.348398e-02 
      -4.342344e+00      -4.321404e+00       0.000000e+00 
      -4.324810e+00      -4.336782e+00       1.348398e-02 
      -4.304456e+00      -4.325396e+00       0.000000e+00 
      -3.866463e+00       1.338137e-02       4.324729e+00 
      -3.886818e+00       1.995784e-03       4.338213e+00 
      -3.869283e+00      -1.338187e-02       4.351697e+00 
      -3.848929e+00      -1.996290e-03       4.338213e+00 
      -4.081244e+00      -2.153649e+00       2.159572e+00 
      -4.108035e+00      -2.150826e+00       2.159572e+00 
      -4.110029e+00      -2.169751e+00       2.178641e+00 
      -4.083238e+00      -2.172574e+00       2.178641e+00 
      -4.315349e+00       4.309007e+00      -9.534611e-03 
      -4.312526e+00       4.335799e+00      -9.534611e-03 
      -4.331451e+00       4.337793e+00       9.534611e-03 
      -4.334274e+00       4.311001e+00       9.534611e-03 
       8.050569e-03       3.853480e+00       4.328678e+00 
       1.087339e-02       3.880272e+00       4.328678e+00 
      -8.051075e-03       3.882266e+00       4.347748e+00 
      -1.087390e-02       3.855474e+00       4.347748e+00 
      -4.310018e+00       4.321990e+00      -1.348398e-02 
      -4.321404e+00       4.342344e+00       0.000000e+00 
      -4.336782e+00       4.324810e+00       1.348398e-02 
      -4.325396e+00       4.304456e+00       0.000000e+00 
       1.338137e-02       3.866463e+00       4.324729e+00 
       1.995786e-03       3.886817e+00       4.338213e+00 
      -1.338187e-02       3.869283e+00       4.351697e+00 
      -1.996292e-03       3.848928e+00       4.338213e+00 
      -2.153649e+00       4.081244e+00       2.159572e+00 
      -2.150826e+00       4.108035e+00       2.159572e+00 
      -2.169751e+00       4.110029e+00       2.178641e+00 
      -2.172574e+00       4.083238e+00       2.178641e+00 
      -4.312526e+00      -4.335799e+00      -9.534610e-03 
      -4.315349e+00      -4.309007e+00      -9.534610e-03 
      -4.334274e+00      -4.311001e+00       9.534610e-03 
      -4.331451e+00      -4.337793e+00       9.534610e-03 
       1.087339e-02      -3.880272e+00       4.328678e+00 
       8.050571e-03      -3.853481e+00       4.328678e+00 
      -1.087390e-02      -3.855475e+00       4.347748e+00 
      -8.051077e-03      -3.882266e+00       4.347748e+00 
      -4.310018e+00      -4.321990e+00      -1.348398e-02 
      -4.325396e+00      -4.304456e+00       0.000000e+00 
      -4.336782e+00      -4.324810e+00       1.348398e-02 
      -4.321404e+00      -4.342344e+00       0.000000e+00 
       1.338137e-02      -3.866463e+00       4.324729e+00 
      -1.996290e-03      -3.848929e+00       4.338213e+00 
      -1.338187e-02      -3.869283e+00       4.351697e+00 
       1.995783e-03      -3.886818e+00       4.338213e+00 
      -2.150826e+00      -4.108035e+00       2.159572e+00 
      -2.153649e+00      -4.081244e+00       2.159572e+00 
      -2.172574e+00      -4.083238e+00       2.178641e+00 
      -2.169751e+00      -4.110029e+00       2.178641e+00 
       4.312526e+00       4.335799e+00      -9.534611e-03 
       4.315349e+00       4.309007e+00      -9.534611e-03 
       4.334274e+00       4.311001e+00       9.534611e-03 
       4.331451e+00       4.337793e+00       9.534611e-03 
      -1.087390e-02       3.880272e+00       4.328678e+00 
      -8.051075e-03       3.853480e+00       4.328678e+00 
       1.087339e-02       3.855474e+00       4.347748e+00 
       8.050568e-03       3.882266e+00       4.347748e+00 
       4.310018e+00       4.321990e+00      -1.348398e-02 
       4.325396e+00       4.304456e+00       0.000000e+00 
       4.336782e+00       4.324810e+00       1.348398e-02 
       4.321404e+00       4.342344e+00       0.000000e+00 
      -1.338187e-02       3.866463e+00       4.324729e+00 
       1.995785e-03       3.848928e+00       4.338213e+00 
       1.338137e-02       3.869283e+00       4.351697e+00 
      -1.996292e-03       3.886817e+00       4.338213e+00 
       2.150826e+00       4.108035e+00       2.159572e+00 
       2.153649e+00       4.081244e+00       2.159572e+00 
       2.172574e+00       4.083238e+00       2.178641e+00 
       2.169751e+00       4.110029e+00       2.178641e+00 
       4.335799e+00      -4.312526e+00      -9.534611e-03 
       4.309007e+00      -4.315349e+00      -9.534611e-03 
       4.311001e+00      -4.334274e+00       9.534611e-03 
       4.337793e+00      -4.331451e+00       9.534611e-03 
       3.880272e+00       1.087339e-02       4.328678e+00 
       3.853480e+00       8.050569e-03       4.328678e+00 
       3.855474e+00      -1.087390e-02       4.347748e+00 
       3.882266e+00      -8.051075e-03       4.347748e+00 
       4.321990e+00      -4.310018e+00      -1.348398e-02 
       4.304456e+00      -4.325396e+00       0.000000e+00 
       4.324810e+00      -4.336782e+00       1.348398e-02 
       4.342344e+00      -4.321404e+00       0.000000e+00 
       3.866463e+00       1.338137e-02       4.324729e+00 
       3.848928e+00      -1.996292e-03       4.338213e+00 
       3.869283e+00      -1.338187e-02       4.351697e+00 
       3.886817e+00       1.995786e-03       4.338213e+00 
       4.108035e+00      -2.150826e+00       2.159572e+00 
       4.081244e+00      -2.153649e+00       2.159572e+00 
       4.083238e+00      -2.172574e+00       2.178641e+00 
       4.110029e+00      -2.169751e+00       2.178641e+00 
       4.315349e+00      -4.309007e+00      -9.534611e-03 
       4.312526e+00      -4.335799e+00      -9.534611e-03 
       4.331451e+00      -4.337793e+00       9.534611e-03 
       4.334274e+00      -4.311001e+00       9.534611e-03 
      -8.051077e-03      -3.853481e+00       4.328678e+00 
      -1.087390e-02      -3.880272e+00       4.328678e+00 
       8.050570e-03      -3.882266e+00       4.347748e+00 
       1.087339e-02      -3.855475e+00       4.347748e+00 
       4.310018e+00      -4.321990e+00      -1.348398e-02 
       4.321404e+00      -4.342344e+00       0.000000e+00 
       4.336782e+00      -4.324810e+00       1.348398e-02 
       4.325396e+00      -4.304456e+00       0.000000e+00 
      -1.338187e-02      -3.866463e+00       4.324729e+00 
      -1.996290e-03      -3.886818e+00       4.338213e+00 
       1.338137e-02      -3.869283e+00       4.351697e+00 
       1.995783e-03      -3.848929e+00       4.338213e+00 
       2.153649e+00      -4.081244e+00       2.159572e+00 
       2.150826e+00      -4.108035e+00       2.159572e+00 
       2.169751e+00      -4.110029e+00       2.178641e+00 
       2.172574e+00      -4.083238e+00       2.178641e+00 
      -4.290298e+00      -4.323581e+00      -3.458200e-03 
      -4.323581e+00      -4.290298e+00      -3.458200e-03 
      -4.356502e+00      -4.323219e+00       3.458200e-03 
      -4.323219e+00      -4.356502e+00       3.458200e-03 
      -3.835075e+00      -3.868358e+00       4.330138e+00 
      -3.868357e+00      -3.835076e+00       4.330138e+00 
      -3.901279e+00      -3.867997e+00       4.337055e+00 
[...]
POINT_DATA     13260 
VECTORS Displacements float
       0.00000000e+00       0.00000000e+00       0.00000000e+00 
       0.00000000e+00       0.00000000e+00       0.00000000e+00 
       0.00000000e+00       0.00000000e+00       0.00000000e+00 
       0.00000000e+00       0.00000000e+00       0.00000000e+00 
       2.66299720e-05      -2.52938968e-07      -9.87020043e-04 
       2.66299720e-05      -2.52938968e-07      -9.87020043e-04 
       2.66299720e-05      -2.52938968e-07      -9.87020043e-04 
       2.66299720e-05      -2.52938968e-07      -9.87020043e-04 
       0.00000000e+00       0.00000000e+00       0.00000000e+00 
       0.00000000e+00       0.00000000e+00       0.00000000e+00 
       0.00000000e+00       0.00000000e+00       0.00000000e+00 
       0.00000000e+00       0.00000000e+00       0.00000000e+00 
       2.66299720e-05      -2.52938968e-07      -9.87020043e-04 
       2.66299720e-05      -2.52938968e-07      -9.87020043e-04 
       2.66299720e-05      -2.52938968e-07      -9.87020043e-04 
       2.66299720e-05      -2.52938968e-07      -9.87020043e-04 
       1.33149860e-05      -1.26469484e-07      -4.93510021e-04 
       1.33149860e-05      -1.26469484e-07      -4.93510021e-04 
       1.33149860e-05      -1.26469484e-07      -4.93510021e-04 
       1.33149860e-05      -1.26469484e-07      -4.93510021e-04 
       0.00000000e+00       0.00000000e+00       0.00000000e+00 
       0.00000000e+00       0.00000000e+00       0.00000000e+00 
       0.00000000e+00       0.00000000e+00       0.00000000e+00 
       0.00000000e+00       0.00000000e+00       0.00000000e+00 
      -2.71368575e-05      -2.52937717e-07      -9.87073511e-04 
      -2.71368575e-05      -2.52937717e-07      -9.87073511e-04 
      -2.71368575e-05      -2.52937717e-07      -9.87073511e-04 
      -2.71368575e-05      -2.52937717e-07      -9.87073511e-04 
       0.00000000e+00       0.00000000e+00       0.00000000e+00 
       0.00000000e+00       0.00000000e+00       0.00000000e+00 
       0.00000000e+00       0.00000000e+00       0.00000000e+00 
       0.00000000e+00       0.00000000e+00       0.00000000e+00 
      -2.71368575e-05      -2.52937717e-07      -9.87073511e-04 
      -2.71368575e-05      -2.52937717e-07      -9.87073511e-04 
      -2.71368575e-05      -2.52937717e-07      -9.87073511e-04 
      -2.71368575e-05      -2.52937717e-07      -9.87073511e-04 
      -1.35684287e-05      -1.26468858e-07      -4.93536755e-04 
      -1.35684287e-05      -1.26468858e-07      -4.93536755e-04 
      -1.35684287e-05      -1.26468858e-07      -4.93536755e-04 
      -1.35684287e-05      -1.26468858e-07      -4.93536755e-04 
       0.00000000e+00       0.00000000e+00       0.00000000e+00 
       0.00000000e+00       0.00000000e+00       0.00000000e+00 
       0.00000000e+00       0.00000000e+00       0.00000000e+00 
       0.00000000e+00       0.00000000e+00       0.00000000e+00 
       2.66299720e-05      -2.52938968e-07      -9.87020043e-04 
       2.66299720e-05      -2.52938968e-07      -9.87020043e-04 
       2.66299720e-05      -2.52938968e-07      -9.87020043e-04 
       2.66299720e-05      -2.52938968e-07      -9.87020043e-04 
       0.00000000e+00       0.00000000e+00       0.00000000e+00 
       0.00000000e+00       0.00000000e+00       0.00000000e+00 
       0.00000000e+00       0.00000000e+00       0.00000000e+00 
       0.00000000e+00       0.00000000e+00       0.00000000e+00 
       2.66299720e-05      -2.52938968e-07      -9.87020043e-04 
       2.66299720e-05      -2.52938968e-07      -9.87020043e-04 
       2.66299720e-05      -2.52938968e-07      -9.87020043e-04 
       2.66299720e-05      -2.52938968e-07      -9.87020043e-04 
       1.33149860e-05      -1.26469484e-07      -4.93510021e-04 
       1.33149860e-05      -1.26469484e-07      -4.93510021e-04 
       1.33149860e-05      -1.26469484e-07      -4.93510021e-04 
       1.33149860e-05      -1.26469484e-07      -4.93510021e-04 
       0.00000000e+00       0.00000000e+00       0.00000000e+00 
       0.00000000e+00       0.00000000e+00       0.00000000e+00 
       0.00000000e+00       0.00000000e+00       0.00000000e+00 
       0.00000000e+00       0.00000000e+00       0.00000000e+00 
      -2.53366239e-07      -2.71362019e-05      -9.87069823e-04 
      -2.53366239e-07      -2.71362019e-05      -9.87069823e-04 
      -2.53366239e-07      -2.71362019e-05      -9.87069823e-04 
      -2.53366239e-07      -2.71362019e-05      -9.87069823e-04 
       0.00000000e+00       0.00000000e+00       0.00000000e+00 
       0.00000000e+00       0.00000000e+00       0.00000000e+00 
       0.00000000e+00       0.00000000e+00       0.00000000e+00 
       0.00000000e+00       0.00000000e+00       0.00000000e+00 
      -2.53366239e-07      -2.71362019e-05      -9.87069823e-04 
      -2.53366239e-07      -2.71362019e-05      -9.87069823e-04 
      -2.53366239e-07      -2.71362019e-05      -9.87069823e-04 
      -2.53366239e-07      -2.71362019e-05      -9.87069823e-04 
      -1.26683119e-07      -1.35681009e-05      -4.93534912e-04 
      -1.26683119e-07      -1.35681009e-05      -4.93534912e-04 
      -1.26683119e-07      -1.35681009e-05      -4.93534912e-04 
      -1.26683119e-07      -1.35681009e-05      -4.93534912e-04 
       0.00000000e+00       0.00000000e+00       0.00000000e+00 
       0.00000000e+00       0.00000000e+00       0.00000000e+00 
       0.00000000e+00       0.00000000e+00       0.00000000e+00 
       0.00000000e+00       0.00000000e+00       0.00000000e+00 
      -2.53367488e-07       2.66301739e-05      -9.87016449e-04 
      -2.53367488e-07       2.66301739e-05      -9.87016449e-04 
      -2.53367488e-07       2.66301739e-05      -9.87016449e-04 
      -2.53367488e-07       2.66301739e-05      -9.87016449e-04 
       0.00000000e+00       0.00000000e+00       0.00000000e+00 
       0.00000000e+00       0.00000000e+00       0.00000000e+00 
       0.00000000e+00       0.00000000e+00       0.00000000e+00 
       0.00000000e+00       0.00000000e+00       0.00000000e+00 
      -2.53367488e-07       2.66301739e-05      -9.87016449e-04 
      -2.53367488e-07       2.66301739e-05      -9.87016449e-04 
      -2.53367488e-07       2.66301739e-05      -9.87016449e-04 
      -2.53367488e-07       2.66301739e-05      -9.87016449e-04 
      -1.26683744e-07       1.33150870e-05      -4.93508225e-04 
      -1.26683744e-07       1.33150870e-05      -4.93508225e-04 
      -1.26683744e-07       1.33150870e-05      -4.93508225e-04 
      -1.26683744e-07       1.33150870e-05      -4.93508225e-04 
       0.00000000e+00       0.00000000e+00       0.00000000e+00 
       0.00000000e+00       0.00000000e+00       0.00000000e+00 
       0.00000000e+00       0.00000000e+00       0.00000000e+00 
       0.00000000e+00       0.00000000e+00       0.00000000e+00 
      -2.53366239e-07      -2.71362019e-05      -9.87069823e-04 
      -2.53366239e-07      -2.71362019e-05      -9.87069823e-04 
      -2.53366239e-07      -2.71362019e-05      -9.87069823e-04 
      -2.53366239e-07      -2.71362019e-05      -9.87069823e-04 
       0.00000000e+00       0.00000000e+00       0.00000000e+00 
       0.00000000e+00       0.00000000e+00       0.00000000e+00 
       0.00000000e+00       0.00000000e+00       0.00000000e+00 
       0.00000000e+00       0.00000000e+00       0.00000000e+00 
      -2.53366239e-07      -2.71362019e-05      -9.87069823e-04 
      -2.53366239e-07      -2.71362019e-05      -9.87069823e-04 
      -2.53366239e-07      -2.71362019e-05      -9.87069823e-04 
      -2.53366239e-07      -2.71362019e-05      -9.87069823e-04 
      -1.26683119e-07      -1.35681009e-05      -4.93534912e-04 
      -1.26683119e-07      -1.35681009e-05      -4.93534912e-04 
      -1.26683119e-07      -1.35681009e-05      -4.93534912e-04 
      -1.26683119e-07      -1.35681009e-05      -4.93534912e-04 
       0.00000000e+00       0.00000000e+00       0.00000000e+00 
       0.00000000e+00       0.00000000e+00       0.00000000e+00 
       0.00000000e+00       0.00000000e+00       0.00000000e+00 
       0.00000000e+00       0.00000000e+00       0.00000000e+00 
      -2.71368575e-05      -2.52937717e-07      -9.87073511e-04 
      -2.71368575e-05      -2.52937717e-07      -9.87073511e-04 
      -2.71368575e-05      -2.52937717e-07      -9.87073511e-04 
      -2.71368575e-05      -2.52937717e-07      -9.87073511e-04 
       0.00000000e+00       0.00000000e+00       0.00000000e+00 
       0.00000000e+00       0.00000000e+00       0.00000000e+00 
       0.00000000e+00       0.00000000e+00       0.00000000e+00 
       0.00000000e+00       0.00000000e+00       0.00000000e+00 
      -2.71368575e-05      -2.52937717e-07      -9.87073511e-04 
      -2.71368575e-05      -2.52937717e-07      -9.87073511e-04 
      -2.71368575e-05      -2.52937717e-07      -9.87073511e-04 
      -2.71368575e-05      -2.52937717e-07      -9.87073511e-04 
      -1.35684287e-05      -1.26468858e-07      -4.93536755e-04 
      -1.35684287e-05      -1.26468858e-07      -4.93536755e-04 
      -1.35684287e-05      -1.26468858e-07      -4.93536755e-04 
      -1.35684287e-05      -1.26468858e-07      -4.93536755e-04 
       0.00000000e+00       0.00000000e+00       0.00000000e+00 
       0.00000000e+00       0.00000000e+00       0.00000000e+00 
       0.00000000e+00       0.00000000e+00       0.00000000e+00 
       0.00000000e+00       0.00000000e+00       0.00000000e+00 
      -2.53367488e-07       2.66301739e-05      -9.87016449e-04 
      -2.53367488e-07       2.66301739e-05      -9.87016449e-04 
      -2.53367488e-07       2.66301739e-05      -9.87016449e-04 
      -2.53367488e-07       2.66301739e-05      -9.87016449e-04 
       0.00000000e+00       0.00000000e+00       0.00000000e+00 
       0.00000000e+00       0.00000000e+00       0.00000000e+00 
       0.00000000e+00       0.00000000e+00       0.00000000e+00 
       0.00000000e+00       0.00000000e+00       0.00000000e+00 
      -2.53367488e-07       2.66301739e-05      -9.87016449e-04 
      -2.53367488e-07       2.66301739e-05      -9.87016449e-04 
      -2.53367488e-07       2.66301739e-05      -9.87016449e-04 
      -2.53367488e-07       2.66301739e-05      -9.87016449e-04 
      -1.26683744e-07       1.33150870e-05      -4.93508225e-04 
      -1.26683744e-07       1.33150870e-05      -4.93508225e-04 
      -1.26683744e-07       1.33150870e-05      -4.93508225e-04 
      -1.26683744e-07       1.33150870e-05      -4.93508225e-04 
       0.00000000e+00       0.00000000e+00       0.00000000e+00 
       0.00000000e+00       0.00000000e+00       0.00000000e+00 
       0.00000000e+00       0.00000000e+00       0.00000000e+00 
       0.00000000e+00       0.00000000e+00       0.00000000e+00 
      -2.76776237e-04      -2.77727590e-04      -5.60343310e-03 
      -2.76776237e-04      -2.77727590e-04      -5.60343310e-03 
      -2.76776237e-04      -2.77727590e-04      -5.60343310e-03 
      -2.76776237e-04      -2.77727590e-04      -5.60343310e-03 
       0.00000000e+00       0.00000000e+00       0.00000000e+00 
       0.00000000e+00       0.00000000e+00       0.00000000e+00 
       0.00000000e+00       0.00000000e+00       0.00000000e+00 
       0.00000000e+00       0.00000000e+00       0.00000000e+00 
      -2.76776237e-04      -2.77727590e-04      -5.60343310e-03 
      -2.76776237e-04      -2.77727590e-04      -5.60343310e-03 
      -2.76776237e-04      -2.77727590e-04      -5.60343310e-03 
      -2.76776237e-04      -2.77727590e-04      -5.60343310e-03 
      -1.38388118e-04      -1.38863795e-04      -2.80171655e-03 
      -1.38388118e-04      -1.38863795e-04      -2.80171655e-03 
      -1.38388118e-04      -1.38863795e-04      -2.80171655e-03 
      -1.38388118e-04      -1.38863795e-04      -2.80171655e-03 
       0.00000000e+00       0.00000000e+00       0.00000000e+00 
       0.00000000e+00       0.00000000e+00       0.00000000e+00 
       0.00000000e+00       0.00000000e+00       0.00000000e+00 
       0.00000000e+00       0.00000000e+00       0.00000000e+00 
       2.76110690e-04      -2.77752376e-04      -5.60406281e-03 
       2.76110690e-04      -2.77752376e-04      -5.60406281e-03 
       2.76110690e-04      -2.77752376e-04      -5.60406281e-03 
       2.76110690e-04      -2.77752376e-04      -5.60406281e-03 
       0.00000000e+00       0.00000000e+00       0.00000000e+00 
       0.00000000e+00       0.00000000e+00       0.00000000e+00 
       0.00000000e+00       0.00000000e+00       0.00000000e+00 
       0.00000000e+00       0.00000000e+00       0.00000000e+00 
       2.76110690e-04      -2.77752376e-04      -5.60406281e-03 
       2.76110690e-04      -2.77752376e-04      -5.60406281e-03 
       2.76110690e-04      -2.77752376e-04      -5.60406281e-03 
       2.76110690e-04      -2.77752376e-04      -5.60406281e-03 
       1.38055345e-04      -1.38876188e-04      -2.80203140e-03 
       1.38055345e-04      -1.38876188e-04      -2.80203140e-03 
       1.38055345e-04      -1.38876188e-04      -2.80203140e-03 
       1.38055345e-04      -1.38876188e-04      -2.80203140e-03 
       0.00000000e+00       0.00000000e+00       0.00000000e+00 
       0.00000000e+00       0.00000000e+00       0.00000000e+00 
       0.00000000e+00       0.00000000e+00       0.00000000e+00 
       0.00000000e+00       0.00000000e+00       0.00000000e+00 
       2.76134747e-04       2.77087960e-04      -5.60469152e-03 
       2.76134747e-04       2.77087960e-04      -5.60469152e-03 
       2.76134747e-04       2.77087960e-04      -5.60469152e-03 
       2.76134747e-04       2.77087960e-04      -5.60469152e-03 
       0.00000000e+00       0.00000000e+00       0.00000000e+00 
       0.00000000e+00       0.00000000e+00       0.00000000e+00 
       0.00000000e+00       0.00000000e+00       0.00000000e+00 
       0.00000000e+00       0.00000000e+00       0.00000000e+00 
       2.76134747e-04       2.77087960e-04      -5.60469152e-03 
       2.76134747e-04       2.77087960e-04      -5.60469152e-03 
       2.76134747e-04       2.77087960e-04      -5.60469152e-03 
       2.76134747e-04       2.77087960e-04      -5.60469152e-03 
       1.38067374e-04       1.38543980e-04      -2.80234576e-03 
       1.38067374e-04       1.38543980e-04      -2.80234576e-03 
       1.38067374e-04       1.38543980e-04      -2.80234576e-03 
       1.38067374e-04       1.38543980e-04      -2.80234576e-03 
       0.00000000e+00       0.00000000e+00       0.00000000e+00 
       0.00000000e+00       0.00000000e+00       0.00000000e+00 
       0.00000000e+00       0.00000000e+00       0.00000000e+00 
       0.00000000e+00       0.00000000e+00       0.00000000e+00 
      -2.76800289e-04       2.77063169e-04      -5.60406181e-03 
      -2.76800289e-04       2.77063169e-04      -5.60406181e-03 
      -2.76800289e-04       2.77063169e-04      -5.60406181e-03 
      -2.76800289e-04       2.77063169e-04      -5.60406181e-03 
       0.00000000e+00       0.00000000e+00       0.00000000e+00 
       0.00000000e+00       0.00000000e+00       0.00000000e+00 
       0.00000000e+00       0.00000000e+00       0.00000000e+00 
       0.00000000e+00       0.00000000e+00       0.00000000e+00 
      -2.76800289e-04       2.77063169e-04      -5.60406181e-03 
      -2.76800289e-04       2.77063169e-04      -5.60406181e-03 
      -2.76800289e-04       2.77063169e-04      -5.60406181e-03 
      -2.76800289e-04       2.77063169e-04      -5.60406181e-03 
      -1.38400144e-04       1.38531584e-04      -2.80203091e-03 
      -1.38400144e-04       1.38531584e-04      -2.80203091e-03 
      -1.38400144e-04       1.38531584e-04      -2.80203091e-03 
      -1.38400144e-04       1.38531584e-04      -2.80203091e-03 
       2.66299720e-05      -2.52938968e-07      -9.87020043e-04 
       2.66299720e-05      -2.52938968e-07      -9.87020043e-04 
       2.66299720e-05      -2.52938968e-07      -9.87020043e-04 
       2.66299720e-05      -2.52938968e-07      -9.87020043e-04 
      -2.76800289e-04       2.77063169e-04      -5.60406181e-03 
      -2.76800289e-04       2.77063169e-04      -5.60406181e-03 
      -2.76800289e-04       2.77063169e-04      -5.60406181e-03 
      -2.76800289e-04       2.77063169e-04      -5.60406181e-03 
       2.66299720e-05      -2.52938968e-07      -9.87020043e-04 
       2.66299720e-05      -2.52938968e-07      -9.87020043e-04 
       2.66299720e-05      -2.52938968e-07      -9.87020043e-04 
       2.66299720e-05      -2.52938968e-07      -9.87020043e-04 
      -2.76800289e-04       2.77063169e-04      -5.60406181e-03 
      -2.76800289e-04       2.77063169e-04      -5.60406181e-03 
      -2.76800289e-04       2.77063169e-04      -5.60406181e-03 
      -2.76800289e-04       2.77063169e-04      -5.60406181e-03 
      -1.25085158e-04       1.38405115e-04      -3.29554093e-03 
      -1.25085158e-04       1.38405115e-04      -3.29554093e-03 
      -1.25085158e-04       1.38405115e-04      -3.29554093e-03 
      -1.25085158e-04       1.38405115e-04      -3.29554093e-03 
       2.66299720e-05      -2.52938968e-07      -9.87020043e-04 
       2.66299720e-05      -2.52938968e-07      -9.87020043e-04 
       2.66299720e-05      -2.52938968e-07      -9.87020043e-04 
       2.66299720e-05      -2.52938968e-07      -9.87020043e-04 
      -2.76776237e-04      -2.77727590e-04      -5.60343310e-03 
      -2.76776237e-04      -2.77727590e-04      -5.60343310e-03 
      -2.76776237e-04      -2.77727590e-04      -5.60343310e-03 
      -2.76776237e-04      -2.77727590e-04      -5.60343310e-03 
       2.66299720e-05      -2.52938968e-07      -9.87020043e-04 
       2.66299720e-05      -2.52938968e-07      -9.87020043e-04 
       2.66299720e-05      -2.52938968e-07      -9.87020043e-04 
       2.66299720e-05      -2.52938968e-07      -9.87020043e-04 
      -2.76776237e-04      -2.77727590e-04      -5.60343310e-03 
      -2.76776237e-04      -2.77727590e-04      -5.60343310e-03 
      -2.76776237e-04      -2.77727590e-04      -5.60343310e-03 
      -2.76776237e-04      -2.77727590e-04      -5.60343310e-03 
      -1.25073132e-04      -1.38990264e-04      -3.29522657e-03 
      -1.25073132e-04      -1.38990264e-04      -3.29522657e-03 
      -1.25073132e-04      -1.38990264e-04      -3.29522657e-03 
      -1.25073132e-04      -1.38990264e-04      -3.29522657e-03 
      -2.71368575e-05      -2.52937717e-07      -9.87073511e-04 
      -2.71368575e-05      -2.52937717e-07      -9.87073511e-04 
      -2.71368575e-05      -2.52937717e-07      -9.87073511e-04 
      -2.71368575e-05      -2.52937717e-07      -9.87073511e-04 
       2.76134747e-04       2.77087960e-04      -5.60469152e-03 
       2.76134747e-04       2.77087960e-04      -5.60469152e-03 
       2.76134747e-04       2.77087960e-04      -5.60469152e-03 
       2.76134747e-04       2.77087960e-04      -5.60469152e-03 
      -2.71368575e-05      -2.52937717e-07      -9.87073511e-04 
      -2.71368575e-05      -2.52937717e-07      -9.87073511e-04 
      -2.71368575e-05      -2.52937717e-07      -9.87073511e-04 
      -2.71368575e-05      -2.52937717e-07      -9.87073511e-04 
       2.76134747e-04       2.77087960e-04      -5.60469152e-03 
       2.76134747e-04       2.77087960e-04      -5.60469152e-03 
       2.76134747e-04       2.77087960e-04      -5.60469152e-03 
       2.76134747e-04       2.77087960e-04      -5.60469152e-03 
       1.24498945e-04       1.38417511e-04      -3.29588251e-03 
       1.24498945e-04       1.38417511e-04      -3.29588251e-03 
       1.24498945e-04       1.38417511e-04      -3.29588251e-03 
       1.24498945e-04       1.38417511e-04      -3.29588251e-03 
      -2.71368575e-05      -2.52937717e-07      -9.87073511e-04 
      -2.71368575e-05      -2.52937717e-07      -9.87073511e-04 
      -2.71368575e-05      -2.52937717e-07      -9.87073511e-04 
      -2.71368575e-05      -2.52937717e-07      -9.87073511e-04 
      -2.53367488e-07       2.66301739e-05      -9.87016449e-04 
      -2.53367488e-07       2.66301739e-05      -9.87016449e-04 