# vtk DataFile Version 2.0
./output/Static_Tower/Static_Tower_0004.vtk
ASCII
DATASET UNSTRUCTURED_GRID

POINTS 13260 float
      -4.335798e+00       4.312525e+00      -9.533652e-03 
      -4.309007e+00       4.315349e+00      -9.533652e-03 
      -4.311002e+00       4.334275e+00       9.533652e-03 
      -4.337793e+00       4.331451e+00       9.533652e-03 
      -3.879956e+00      -1.087550e-02       4.329587e+00 
      -3.853165e+00      -8.050752e-03       4.329587e+00 
      -3.855161e+00       1.087549e-02       4.348654e+00 
      -3.881952e+00       8.050734e-03       4.348654e+00 
      -4.321989e+00       4.310017e+00      -1.348262e-02 
      -4.304456e+00       4.325397e+00       0.000000e+00 
      -4.324811e+00       4.336783e+00       1.348262e-02 
      -4.342344e+00       4.321403e+00       0.000000e+00 
      -3.866148e+00      -1.338288e-02       4.325638e+00 
      -3.848614e+00       1.997392e-03       4.339120e+00 
      -3.868970e+00       1.338286e-02       4.352603e+00 
      -3.886503e+00      -1.997409e-03       4.339120e+00 
      -4.107877e+00       2.150825e+00       2.160027e+00 
      -4.081086e+00       2.153649e+00       2.160027e+00 
      -4.083081e+00       2.172575e+00       2.179094e+00 
      -4.109873e+00       2.169751e+00       2.179094e+00 
       4.309008e+00       4.315347e+00      -9.533495e-03 
       4.335800e+00       4.312526e+00      -9.533495e-03 
       4.337792e+00       4.331453e+00       9.533495e-03 
       4.311000e+00       4.334274e+00       9.533495e-03 
       3.853847e+00      -8.053148e-03       4.329658e+00 
       3.880638e+00      -1.087373e-02       4.329658e+00 
       3.882631e+00       8.053130e-03       4.348725e+00 
       3.855839e+00       1.087371e-02       4.348725e+00 
       4.321991e+00       4.310017e+00      -1.348240e-02 
       4.342345e+00       4.321406e+00       0.000000e+00 
       4.324809e+00       4.336783e+00       1.348240e-02 
       4.304455e+00       4.325394e+00       0.000000e+00 
       3.866830e+00      -1.338332e-02       4.325709e+00 
       3.887184e+00      -1.994461e-03       4.339192e+00 
       3.869648e+00       1.338330e-02       4.352674e+00 
       3.849294e+00       1.994443e-03       4.339192e+00 
       4.081427e+00       2.153647e+00       2.160062e+00 
       4.108219e+00       2.150826e+00       2.160062e+00 
       4.110212e+00       2.169753e+00       2.179129e+00 
       4.083420e+00       2.172574e+00       2.179129e+00 
      -4.309007e+00      -4.315349e+00      -9.533652e-03 
      -4.335798e+00      -4.312525e+00      -9.533652e-03 
      -4.337793e+00      -4.331451e+00       9.533652e-03 
      -4.311002e+00      -4.334275e+00       9.533652e-03 
      -3.853165e+00       8.050734e-03       4.329587e+00 
      -3.879956e+00       1.087549e-02       4.329587e+00 
      -3.881952e+00      -8.050752e-03       4.348654e+00 
      -3.855161e+00      -1.087550e-02       4.348654e+00 
      -4.321989e+00      -4.310017e+00      -1.348262e-02 
      -4.342344e+00      -4.321403e+00       0.000000e+00 
      -4.324811e+00      -4.336783e+00       1.348262e-02 
      -4.304456e+00      -4.325397e+00       0.000000e+00 
      -3.866148e+00       1.338286e-02       4.325638e+00 
      -3.886503e+00       1.997392e-03       4.339120e+00 
      -3.868970e+00      -1.338288e-02       4.352603e+00 
      -3.848614e+00      -1.997409e-03       4.339120e+00 
      -4.081086e+00      -2.153649e+00       2.160027e+00 
      -4.107877e+00      -2.150825e+00       2.160027e+00 
      -4.109873e+00      -2.169751e+00       2.179094e+00 
      -4.083081e+00      -2.172575e+00       2.179094e+00 
      -4.315348e+00       4.309007e+00      -9.533934e-03 
      -4.312526e+00       4.335799e+00      -9.533934e-03 
      -4.331452e+00       4.337793e+00       9.533934e-03 
      -4.334274e+00       4.311001e+00       9.533934e-03 
       8.382713e-03       3.853506e+00       4.329622e+00 
       1.120517e-02       3.880298e+00       4.329622e+00 
      -7.720680e-03       3.882291e+00       4.348690e+00 
      -1.054313e-02       3.855500e+00       4.348690e+00 
      -4.310017e+00       4.321990e+00      -1.348302e-02 
      -4.321404e+00       4.342344e+00       0.000000e+00 
      -4.336783e+00       4.324810e+00       1.348302e-02 
      -4.325396e+00       4.304456e+00       0.000000e+00 
       1.371361e-02       3.866489e+00       4.325673e+00 
       2.326792e-03       3.886843e+00       4.339156e+00 
      -1.305158e-02       3.869309e+00       4.352639e+00 
      -1.664759e-03       3.848954e+00       4.339156e+00 
      -2.153483e+00       4.081257e+00       2.160044e+00 
      -2.150660e+00       4.108048e+00       2.160044e+00 
      -2.169586e+00       4.110042e+00       2.179112e+00 
      -2.172409e+00       4.083251e+00       2.179112e+00 
      -4.312526e+00      -4.335799e+00      -9.533934e-03 
      -4.315348e+00      -4.309007e+00      -9.533934e-03 
      -4.334274e+00      -4.311001e+00       9.533934e-03 
      -4.331452e+00      -4.337793e+00       9.533934e-03 
       1.120517e-02      -3.880298e+00       4.329622e+00 
       8.382713e-03      -3.853506e+00       4.329622e+00 
      -1.054313e-02      -3.855500e+00       4.348690e+00 
      -7.720680e-03      -3.882291e+00       4.348690e+00 
      -4.310017e+00      -4.321990e+00      -1.348302e-02 
      -4.325396e+00      -4.304456e+00       0.000000e+00 
      -4.336783e+00      -4.324810e+00       1.348302e-02 
      -4.321404e+00      -4.342344e+00       0.000000e+00 
       1.371361e-02      -3.866489e+00       4.325673e+00 
      -1.664759e-03      -3.848954e+00       4.339156e+00 
      -1.305158e-02      -3.869309e+00       4.352639e+00 
       2.326792e-03      -3.886843e+00       4.339156e+00 
      -2.150660e+00      -4.108048e+00       2.160044e+00 
      -2.153483e+00      -4.081257e+00       2.160044e+00 
      -2.172409e+00      -4.083251e+00       2.179112e+00 
      -2.169586e+00      -4.110042e+00       2.179112e+00 
       4.312525e+00       4.335799e+00      -9.533213e-03 
       4.315348e+00       4.309007e+00      -9.533213e-03 
       4.334275e+00       4.311001e+00       9.533213e-03 
       4.331452e+00       4.337793e+00       9.533213e-03 
      -1.054405e-02       3.880297e+00       4.329623e+00 
      -7.721168e-03       3.853506e+00       4.329623e+00 
       1.120608e-02       3.855500e+00       4.348689e+00 
       8.383202e-03       3.882292e+00       4.348689e+00 
       4.310016e+00       4.321990e+00      -1.348200e-02 
       4.325396e+00       4.304456e+00       0.000000e+00 
       4.336784e+00       4.324810e+00       1.348200e-02 
       4.321404e+00       4.342344e+00       0.000000e+00 
      -1.305257e-02       3.866489e+00       4.325674e+00 
       2.327094e-03       3.848954e+00       4.339156e+00 
       1.371460e-02       3.869309e+00       4.352638e+00 
      -1.665061e-03       3.886843e+00       4.339156e+00 
       2.150990e+00       4.108048e+00       2.160045e+00 
       2.153813e+00       4.081257e+00       2.160045e+00 
       2.172741e+00       4.083251e+00       2.179111e+00 
       2.169918e+00       4.110042e+00       2.179111e+00 
       4.335800e+00      -4.312526e+00      -9.533495e-03 
       4.309008e+00      -4.315347e+00      -9.533495e-03 
       4.311000e+00      -4.334274e+00       9.533495e-03 
       4.337792e+00      -4.331453e+00       9.533495e-03 
       3.880638e+00       1.087371e-02       4.329658e+00 
       3.853847e+00       8.053130e-03       4.329658e+00 
       3.855839e+00      -1.087373e-02       4.348725e+00 
       3.882631e+00      -8.053148e-03       4.348725e+00 
       4.321991e+00      -4.310017e+00      -1.348240e-02 
       4.304455e+00      -4.325394e+00       0.000000e+00 
       4.324809e+00      -4.336783e+00       1.348240e-02 
       4.342345e+00      -4.321406e+00       0.000000e+00 
       3.866830e+00       1.338330e-02       4.325709e+00 
       3.849294e+00      -1.994461e-03       4.339192e+00 
       3.869648e+00      -1.338332e-02       4.352674e+00 
       3.887184e+00       1.994443e-03       4.339192e+00 
       4.108219e+00      -2.150826e+00       2.160062e+00 
       4.081427e+00      -2.153647e+00       2.160062e+00 
       4.083420e+00      -2.172574e+00       2.179129e+00 
       4.110212e+00      -2.169753e+00       2.179129e+00 
       4.315348e+00      -4.309007e+00      -9.533213e-03 
       4.312525e+00      -4.335799e+00      -9.533213e-03 
       4.331452e+00      -4.337793e+00       9.533213e-03 
       4.334275e+00      -4.311001e+00       9.533213e-03 
      -7.721169e-03      -3.853506e+00       4.329623e+00 
      -1.054405e-02      -3.880297e+00       4.329623e+00 
       8.383202e-03      -3.882292e+00       4.348689e+00 
       1.120608e-02      -3.855500e+00       4.348689e+00 
       4.310016e+00      -4.321990e+00      -1.348200e-02 
       4.321404e+00      -4.342344e+00       0.000000e+00 
       4.336784e+00      -4.324810e+00       1.348200e-02 
       4.325396e+00      -4.304456e+00       0.000000e+00 
      -1.305257e-02      -3.866489e+00       4.325674e+00 
      -1.665061e-03      -3.886843e+00       4.339156e+00 
       1.371460e-02      -3.869309e+00       4.352638e+00 
       2.327094e-03      -3.848954e+00       4.339156e+00 
       2.153813e+00      -4.081257e+00       2.160045e+00 
       2.150990e+00      -4.108048e+00       2.160045e+00 
       2.169918e+00      -4.110042e+00       2.179111e+00 
       2.172741e+00      -4.083251e+00       2.179111e+00 
      -4.290298e+00      -4.323595e+00      -3.457067e-03 
      -4.323566e+00      -4.290298e+00      -3.457067e-03 
      -4.356502e+00      -4.323205e+00       3.457067e-03 
      -4.323234e+00      -4.356502e+00       3.457067e-03 
      -3.834381e+00      -3.868088e+00       4.336251e+00 
      -3.867649e+00      -3.834791e+00       4.336251e+00 
      -3.900585e+00      -3.867697e+00       4.343165e+00 
[...]
POINT_DATA     13260 
VECTORS Displacements float
       0.00000000e+00       0.00000000e+00       0.00000000e+00 
       0.00000000e+00       0.00000000e+00       0.00000000e+00 
       0.00000000e+00       0.00000000e+00       0.00000000e+00 
       0.00000000e+00       0.00000000e+00       0.00000000e+00 
       3.41351834e-04      -8.82184502e-09      -7.95130278e-05 
       3.41351834e-04      -8.82184502e-09      -7.95130278e-05 
       3.41351834e-04      -8.82184502e-09      -7.95130278e-05 
       3.41351834e-04      -8.82184502e-09      -7.95130278e-05 
       0.00000000e+00       0.00000000e+00       0.00000000e+00 
       0.00000000e+00       0.00000000e+00       0.00000000e+00 
       0.00000000e+00       0.00000000e+00       0.00000000e+00 
       0.00000000e+00       0.00000000e+00       0.00000000e+00 
       3.41351834e-04      -8.82184502e-09      -7.95130278e-05 
       3.41351834e-04      -8.82184502e-09      -7.95130278e-05 
       3.41351834e-04      -8.82184502e-09      -7.95130278e-05 
       3.41351834e-04      -8.82184502e-09      -7.95130278e-05 
       1.70675917e-04      -4.41092251e-09      -3.97565139e-05 
       1.70675917e-04      -4.41092251e-09      -3.97565139e-05 
       1.70675917e-04      -4.41092251e-09      -3.97565139e-05 
       1.70675917e-04      -4.41092251e-09      -3.97565139e-05 
       0.00000000e+00       0.00000000e+00       0.00000000e+00 
       0.00000000e+00       0.00000000e+00       0.00000000e+00 
       0.00000000e+00       0.00000000e+00       0.00000000e+00 
       0.00000000e+00       0.00000000e+00       0.00000000e+00 
       3.38966645e-04      -9.04697533e-09      -8.11208646e-06 
       3.38966645e-04      -9.04697533e-09      -8.11208646e-06 
       3.38966645e-04      -9.04697533e-09      -8.11208646e-06 
       3.38966645e-04      -9.04697533e-09      -8.11208646e-06 
       0.00000000e+00       0.00000000e+00       0.00000000e+00 
       0.00000000e+00       0.00000000e+00       0.00000000e+00 
       0.00000000e+00       0.00000000e+00       0.00000000e+00 
       0.00000000e+00       0.00000000e+00       0.00000000e+00 
       3.38966645e-04      -9.04697533e-09      -8.11208646e-06 
       3.38966645e-04      -9.04697533e-09      -8.11208646e-06 
       3.38966645e-04      -9.04697533e-09      -8.11208646e-06 
       3.38966645e-04      -9.04697533e-09      -8.11208646e-06 
       1.69483323e-04      -4.52348767e-09      -4.05604323e-06 
       1.69483323e-04      -4.52348767e-09      -4.05604323e-06 
       1.69483323e-04      -4.52348767e-09      -4.05604323e-06 
       1.69483323e-04      -4.52348767e-09      -4.05604323e-06 
       0.00000000e+00       0.00000000e+00       0.00000000e+00 
       0.00000000e+00       0.00000000e+00       0.00000000e+00 
       0.00000000e+00       0.00000000e+00       0.00000000e+00 
       0.00000000e+00       0.00000000e+00       0.00000000e+00 
       3.41351834e-04      -8.82184502e-09      -7.95130278e-05 
       3.41351834e-04      -8.82184502e-09      -7.95130278e-05 
       3.41351834e-04      -8.82184502e-09      -7.95130278e-05 
       3.41351834e-04      -8.82184502e-09      -7.95130278e-05 
       0.00000000e+00       0.00000000e+00       0.00000000e+00 
       0.00000000e+00       0.00000000e+00       0.00000000e+00 
       0.00000000e+00       0.00000000e+00       0.00000000e+00 
       0.00000000e+00       0.00000000e+00       0.00000000e+00 
       3.41351834e-04      -8.82184502e-09      -7.95130278e-05 
       3.41351834e-04      -8.82184502e-09      -7.95130278e-05 
       3.41351834e-04      -8.82184502e-09      -7.95130278e-05 
       3.41351834e-04      -8.82184502e-09      -7.95130278e-05 
       1.70675917e-04      -4.41092251e-09      -3.97565139e-05 
       1.70675917e-04      -4.41092251e-09      -3.97565139e-05 
       1.70675917e-04      -4.41092251e-09      -3.97565139e-05 
       1.70675917e-04      -4.41092251e-09      -3.97565139e-05 
       0.00000000e+00       0.00000000e+00       0.00000000e+00 
       0.00000000e+00       0.00000000e+00       0.00000000e+00 
       0.00000000e+00       0.00000000e+00       0.00000000e+00 
       0.00000000e+00       0.00000000e+00       0.00000000e+00 
       3.31016598e-04      -1.20413921e-06      -4.38376824e-05 
       3.31016598e-04      -1.20413921e-06      -4.38376824e-05 
       3.31016598e-04      -1.20413921e-06      -4.38376824e-05 
       3.31016598e-04      -1.20413921e-06      -4.38376824e-05 
       0.00000000e+00       0.00000000e+00       0.00000000e+00 
       0.00000000e+00       0.00000000e+00       0.00000000e+00 
       0.00000000e+00       0.00000000e+00       0.00000000e+00 
       0.00000000e+00       0.00000000e+00       0.00000000e+00 
       3.31016598e-04      -1.20413921e-06      -4.38376824e-05 
       3.31016598e-04      -1.20413921e-06      -4.38376824e-05 
       3.31016598e-04      -1.20413921e-06      -4.38376824e-05 
       3.31016598e-04      -1.20413921e-06      -4.38376824e-05 
       1.65508299e-04      -6.02069603e-07      -2.19188412e-05 
       1.65508299e-04      -6.02069603e-07      -2.19188412e-05 
       1.65508299e-04      -6.02069603e-07      -2.19188412e-05 
       1.65508299e-04      -6.02069603e-07      -2.19188412e-05 
       0.00000000e+00       0.00000000e+00       0.00000000e+00 
       0.00000000e+00       0.00000000e+00       0.00000000e+00 
       0.00000000e+00       0.00000000e+00       0.00000000e+00 
       0.00000000e+00       0.00000000e+00       0.00000000e+00 
       3.31016400e-04       1.18627014e-06      -4.38358062e-05 
       3.31016400e-04       1.18627014e-06      -4.38358062e-05 
       3.31016400e-04       1.18627014e-06      -4.38358062e-05 
       3.31016400e-04       1.18627014e-06      -4.38358062e-05 
       0.00000000e+00       0.00000000e+00       0.00000000e+00 
       0.00000000e+00       0.00000000e+00       0.00000000e+00 
       0.00000000e+00       0.00000000e+00       0.00000000e+00 
       0.00000000e+00       0.00000000e+00       0.00000000e+00 
       3.31016400e-04       1.18627014e-06      -4.38358062e-05 
       3.31016400e-04       1.18627014e-06      -4.38358062e-05 
       3.31016400e-04       1.18627014e-06      -4.38358062e-05 
       3.31016400e-04       1.18627014e-06      -4.38358062e-05 
       1.65508200e-04       5.93135068e-07      -2.19179031e-05 
       1.65508200e-04       5.93135068e-07      -2.19179031e-05 
       1.65508200e-04       5.93135068e-07      -2.19179031e-05 
       1.65508200e-04       5.93135068e-07      -2.19179031e-05 
       0.00000000e+00       0.00000000e+00       0.00000000e+00 
       0.00000000e+00       0.00000000e+00       0.00000000e+00 
       0.00000000e+00       0.00000000e+00       0.00000000e+00 
       0.00000000e+00       0.00000000e+00       0.00000000e+00 
       3.31016598e-04      -1.20413921e-06      -4.38376824e-05 
       3.31016598e-04      -1.20413921e-06      -4.38376824e-05 
       3.31016598e-04      -1.20413921e-06      -4.38376824e-05 
       3.31016598e-04      -1.20413921e-06      -4.38376824e-05 
       0.00000000e+00       0.00000000e+00       0.00000000e+00 
       0.00000000e+00       0.00000000e+00       0.00000000e+00 
       0.00000000e+00       0.00000000e+00       0.00000000e+00 
       0.00000000e+00       0.00000000e+00       0.00000000e+00 
       3.31016598e-04      -1.20413921e-06      -4.38376824e-05 
       3.31016598e-04      -1.20413921e-06      -4.38376824e-05 
       3.31016598e-04      -1.20413921e-06      -4.38376824e-05 
       3.31016598e-04      -1.20413921e-06      -4.38376824e-05 
       1.65508299e-04      -6.02069603e-07      -2.19188412e-05 
       1.65508299e-04      -6.02069603e-07      -2.19188412e-05 
       1.65508299e-04      -6.02069603e-07      -2.19188412e-05 
       1.65508299e-04      -6.02069603e-07      -2.19188412e-05 
       0.00000000e+00       0.00000000e+00       0.00000000e+00 
       0.00000000e+00       0.00000000e+00       0.00000000e+00 
       0.00000000e+00       0.00000000e+00       0.00000000e+00 
       0.00000000e+00       0.00000000e+00       0.00000000e+00 
       3.38966645e-04      -9.04697533e-09      -8.11208646e-06 
       3.38966645e-04      -9.04697533e-09      -8.11208646e-06 
       3.38966645e-04      -9.04697533e-09      -8.11208646e-06 
       3.38966645e-04      -9.04697533e-09      -8.11208646e-06 
       0.00000000e+00       0.00000000e+00       0.00000000e+00 
       0.00000000e+00       0.00000000e+00       0.00000000e+00 
       0.00000000e+00       0.00000000e+00       0.00000000e+00 
       0.00000000e+00       0.00000000e+00       0.00000000e+00 
       3.38966645e-04      -9.04697533e-09      -8.11208646e-06 
       3.38966645e-04      -9.04697533e-09      -8.11208646e-06 
       3.38966645e-04      -9.04697533e-09      -8.11208646e-06 
       3.38966645e-04      -9.04697533e-09      -8.11208646e-06 
       1.69483323e-04      -4.52348767e-09      -4.05604323e-06 
       1.69483323e-04      -4.52348767e-09      -4.05604323e-06 
       1.69483323e-04      -4.52348767e-09      -4.05604323e-06 
       1.69483323e-04      -4.52348767e-09      -4.05604323e-06 
       0.00000000e+00       0.00000000e+00       0.00000000e+00 
       0.00000000e+00       0.00000000e+00       0.00000000e+00 
       0.00000000e+00       0.00000000e+00       0.00000000e+00 
       0.00000000e+00       0.00000000e+00       0.00000000e+00 
       3.31016400e-04       1.18627014e-06      -4.38358062e-05 
       3.31016400e-04       1.18627014e-06      -4.38358062e-05 
       3.31016400e-04       1.18627014e-06      -4.38358062e-05 
       3.31016400e-04       1.18627014e-06      -4.38358062e-05 
       0.00000000e+00       0.00000000e+00       0.00000000e+00 
       0.00000000e+00       0.00000000e+00       0.00000000e+00 
       0.00000000e+00       0.00000000e+00       0.00000000e+00 
       0.00000000e+00       0.00000000e+00       0.00000000e+00 
       3.31016400e-04       1.18627014e-06      -4.38358062e-05 
       3.31016400e-04       1.18627014e-06      -4.38358062e-05 
       3.31016400e-04       1.18627014e-06      -4.38358062e-05 
       3.31016400e-04       1.18627014e-06      -4.38358062e-05 
       1.65508200e-04       5.93135068e-07      -2.19179031e-05 
       1.65508200e-04       5.93135068e-07      -2.19179031e-05 
       1.65508200e-04       5.93135068e-07      -2.19179031e-05 
       1.65508200e-04       5.93135068e-07      -2.19179031e-05 
       0.00000000e+00       0.00000000e+00       0.00000000e+00 
       0.00000000e+00       0.00000000e+00       0.00000000e+00 
       0.00000000e+00       0.00000000e+00       0.00000000e+00 
       0.00000000e+00       0.00000000e+00       0.00000000e+00 
       4.16977609e-04       7.15346600e-06       5.07893749e-04 
       4.16977609e-04       7.15346600e-06       5.07893749e-04 
       4.16977609e-04       7.15346600e-06       5.07893749e-04 
       4.16977609e-04       7.15346600e-06       5.07893749e-04 
       0.00000000e+00       0.00000000e+00       0.00000000e+00 
       0.00000000e+00       0.00000000e+00       0.00000000e+00 
       0.00000000e+00       0.00000000e+00       0.00000000e+00 
       0.00000000e+00       0.00000000e+00       0.00000000e+00 
       4.16977609e-04       7.15346600e-06       5.07893749e-04 
       4.16977609e-04       7.15346600e-06       5.07893749e-04 
       4.16977609e-04       7.15346600e-06       5.07893749e-04 
       4.16977609e-04       7.15346600e-06       5.07893749e-04 
       2.08488804e-04       3.57673300e-06       2.53946875e-04 
       2.08488804e-04       3.57673300e-06       2.53946875e-04 
       2.08488804e-04       3.57673300e-06       2.53946875e-04 
       2.08488804e-04       3.57673300e-06       2.53946875e-04 
       0.00000000e+00       0.00000000e+00       0.00000000e+00 
       0.00000000e+00       0.00000000e+00       0.00000000e+00 
       0.00000000e+00       0.00000000e+00       0.00000000e+00 
       0.00000000e+00       0.00000000e+00       0.00000000e+00 
       4.38627427e-04      -2.80488409e-05      -8.49178854e-04 
       4.38627427e-04      -2.80488409e-05      -8.49178854e-04 
       4.38627427e-04      -2.80488409e-05      -8.49178854e-04 
       4.38627427e-04      -2.80488409e-05      -8.49178854e-04 
       0.00000000e+00       0.00000000e+00       0.00000000e+00 
       0.00000000e+00       0.00000000e+00       0.00000000e+00 
       0.00000000e+00       0.00000000e+00       0.00000000e+00 
       0.00000000e+00       0.00000000e+00       0.00000000e+00 
       4.38627427e-04      -2.80488409e-05      -8.49178854e-04 
       4.38627427e-04      -2.80488409e-05      -8.49178854e-04 
       4.38627427e-04      -2.80488409e-05      -8.49178854e-04 
       4.38627427e-04      -2.80488409e-05      -8.49178854e-04 
       2.19313714e-04      -1.40244205e-05      -4.24589427e-04 
       2.19313714e-04      -1.40244205e-05      -4.24589427e-04 
       2.19313714e-04      -1.40244205e-05      -4.24589427e-04 
       2.19313714e-04      -1.40244205e-05      -4.24589427e-04 
       0.00000000e+00       0.00000000e+00       0.00000000e+00 
       0.00000000e+00       0.00000000e+00       0.00000000e+00 
       0.00000000e+00       0.00000000e+00       0.00000000e+00 
       0.00000000e+00       0.00000000e+00       0.00000000e+00 
       4.38628767e-04       2.80250874e-05      -8.49201370e-04 
       4.38628767e-04       2.80250874e-05      -8.49201370e-04 
       4.38628767e-04       2.80250874e-05      -8.49201370e-04 
       4.38628767e-04       2.80250874e-05      -8.49201370e-04 
       0.00000000e+00       0.00000000e+00       0.00000000e+00 
       0.00000000e+00       0.00000000e+00       0.00000000e+00 
       0.00000000e+00       0.00000000e+00       0.00000000e+00 
       0.00000000e+00       0.00000000e+00       0.00000000e+00 
       4.38628767e-04       2.80250874e-05      -8.49201370e-04 
       4.38628767e-04       2.80250874e-05      -8.49201370e-04 
       4.38628767e-04       2.80250874e-05      -8.49201370e-04 
       4.38628767e-04       2.80250874e-05      -8.49201370e-04 
       2.19314383e-04       1.40125437e-05      -4.24600685e-04 
       2.19314383e-04       1.40125437e-05      -4.24600685e-04 
       2.19314383e-04       1.40125437e-05      -4.24600685e-04 
       2.19314383e-04       1.40125437e-05      -4.24600685e-04 
       0.00000000e+00       0.00000000e+00       0.00000000e+00 
       0.00000000e+00       0.00000000e+00       0.00000000e+00 
       0.00000000e+00       0.00000000e+00       0.00000000e+00 
       0.00000000e+00       0.00000000e+00       0.00000000e+00 
       4.16976762e-04      -7.17660112e-06       5.07871263e-04 
       4.16976762e-04      -7.17660112e-06       5.07871263e-04 
       4.16976762e-04      -7.17660112e-06       5.07871263e-04 
       4.16976762e-04      -7.17660112e-06       5.07871263e-04 
       0.00000000e+00       0.00000000e+00       0.00000000e+00 
       0.00000000e+00       0.00000000e+00       0.00000000e+00 
       0.00000000e+00       0.00000000e+00       0.00000000e+00 
       0.00000000e+00       0.00000000e+00       0.00000000e+00 
       4.16976762e-04      -7.17660112e-06       5.07871263e-04 
       4.16976762e-04      -7.17660112e-06       5.07871263e-04 
       4.16976762e-04      -7.17660112e-06       5.07871263e-04 
       4.16976762e-04      -7.17660112e-06       5.07871263e-04 
       2.08488381e-04      -3.58830056e-06       2.53935632e-04 
       2.08488381e-04      -3.58830056e-06       2.53935632e-04 
       2.08488381e-04      -3.58830056e-06       2.53935632e-04 
       2.08488381e-04      -3.58830056e-06       2.53935632e-04 
       3.41351834e-04      -8.82184502e-09      -7.95130278e-05 
       3.41351834e-04      -8.82184502e-09      -7.95130278e-05 
       3.41351834e-04      -8.82184502e-09      -7.95130278e-05 
       3.41351834e-04      -8.82184502e-09      -7.95130278e-05 
       4.16976762e-04      -7.17660112e-06       5.07871263e-04 
       4.16976762e-04      -7.17660112e-06       5.07871263e-04 
       4.16976762e-04      -7.17660112e-06       5.07871263e-04 
       4.16976762e-04      -7.17660112e-06       5.07871263e-04 
       3.41351834e-04      -8.82184502e-09      -7.95130278e-05 
       3.41351834e-04      -8.82184502e-09      -7.95130278e-05 
       3.41351834e-04      -8.82184502e-09      -7.95130278e-05 
       3.41351834e-04      -8.82184502e-09      -7.95130278e-05 
       4.16976762e-04      -7.17660112e-06       5.07871263e-04 
       4.16976762e-04      -7.17660112e-06       5.07871263e-04 
       4.16976762e-04      -7.17660112e-06       5.07871263e-04 
       4.16976762e-04      -7.17660112e-06       5.07871263e-04 
       3.79164298e-04      -3.59271148e-06       2.14179118e-04 
       3.79164298e-04      -3.59271148e-06       2.14179118e-04 
       3.79164298e-04      -3.59271148e-06       2.14179118e-04 
       3.79164298e-04      -3.59271148e-06       2.14179118e-04 
       3.41351834e-04      -8.82184502e-09      -7.95130278e-05 
       3.41351834e-04      -8.82184502e-09      -7.95130278e-05 
       3.41351834e-04      -8.82184502e-09      -7.95130278e-05 
       3.41351834e-04      -8.82184502e-09      -7.95130278e-05 
       4.16977609e-04       7.15346600e-06       5.07893749e-04 
       4.16977609e-04       7.15346600e-06       5.07893749e-04 
       4.16977609e-04       7.15346600e-06       5.07893749e-04 
       4.16977609e-04       7.15346600e-06       5.07893749e-04 
       3.41351834e-04      -8.82184502e-09      -7.95130278e-05 
       3.41351834e-04      -8.82184502e-09      -7.95130278e-05 
       3.41351834e-04      -8.82184502e-09      -7.95130278e-05 
       3.41351834e-04      -8.82184502e-09      -7.95130278e-05 
       4.16977609e-04       7.15346600e-06       5.07893749e-04 
       4.16977609e-04       7.15346600e-06       5.07893749e-04 
       4.16977609e-04       7.15346600e-06       5.07893749e-04 
       4.16977609e-04       7.15346600e-06       5.07893749e-04 
       3.79164722e-04       3.57232208e-06       2.14190361e-04 
       3.79164722e-04       3.57232208e-06       2.14190361e-04 
       3.79164722e-04       3.57232208e-06       2.14190361e-04 
       3.79164722e-04       3.57232208e-06       2.14190361e-04 
       3.38966645e-04      -9.04697533e-09      -8.11208646e-06 
       3.38966645e-04      -9.04697533e-09      -8.11208646e-06 
       3.38966645e-04      -9.04697533e-09      -8.11208646e-06 
       3.38966645e-04      -9.04697533e-09      -8.11208646e-06 
       4.38628767e-04       2.80250874e-05      -8.49201370e-04 
       4.38628767e-04       2.80250874e-05      -8.49201370e-04 
       4.38628767e-04       2.80250874e-05      -8.49201370e-04 
       4.38628767e-04       2.80250874e-05      -8.49201370e-04 
       3.38966645e-04      -9.04697533e-09      -8.11208646e-06 
       3.38966645e-04      -9.04697533e-09      -8.11208646e-06 
       3.38966645e-04      -9.04697533e-09      -8.11208646e-06 
       3.38966645e-04      -9.04697533e-09      -8.11208646e-06 
       4.38628767e-04       2.80250874e-05      -8.49201370e-04 
       4.38628767e-04       2.80250874e-05      -8.49201370e-04 
       4.38628767e-04       2.80250874e-05      -8.49201370e-04 
       4.38628767e-04       2.80250874e-05      -8.49201370e-04 
       3.88797706e-04       1.40080202e-05      -4.28656728e-04 
       3.88797706e-04       1.40080202e-05      -4.28656728e-04 
       3.88797706e-04       1.40080202e-05      -4.28656728e-04 
       3.88797706e-04       1.40080202e-05      -4.28656728e-04 
       3.38966645e-04      -9.04697533e-09      -8.11208646e-06 
       3.38966645e-04      -9.04697533e-09      -8.11208646e-06 
       3.38966645e-04      -9.04697533e-09      -8.11208646e-06 
       3.38966645e-04      -9.04697533e-09      -8.11208646e-06 
       3.31016400e-04       1.18627014e-06      -4.38358062e-05 
       3.31016400e-04       1.18627014e-06      -4.38358062e-05 