# vtk DataFile Version 2.0
./output/Static_Tower/Static_Tower_0003.vtk
ASCII
DATASET UNSTRUCTURED_GRID

POINTS 13260 float
      -4.335798e+00       4.312525e+00      -9.533632e-03 
      -4.309007e+00       4.315349e+00      -9.533632e-03 
      -4.311002e+00       4.334275e+00       9.533632e-03 
      -4.337793e+00       4.331451e+00       9.533632e-03 
      -3.880042e+00      -1.087528e-02       4.329596e+00 
      -3.853251e+00      -8.051051e-03       4.329596e+00 
      -3.855246e+00       1.087526e-02       4.348663e+00 
      -3.882037e+00       8.051034e-03       4.348663e+00 
      -4.321989e+00       4.310017e+00      -1.348259e-02 
      -4.304456e+00       4.325397e+00       0.000000e+00 
      -4.324811e+00       4.336783e+00       1.348259e-02 
      -4.342344e+00       4.321403e+00       0.000000e+00 
      -3.866233e+00      -1.338293e-02       4.325647e+00 
      -3.848699e+00       1.997023e-03       4.339129e+00 
      -3.869054e+00       1.338292e-02       4.352612e+00 
      -3.886588e+00      -1.997041e-03       4.339129e+00 
      -4.107920e+00       2.150825e+00       2.160031e+00 
      -4.081129e+00       2.153649e+00       2.160031e+00 
      -4.083124e+00       2.172575e+00       2.179098e+00 
      -4.109915e+00       2.169751e+00       2.179098e+00 
       4.309008e+00       4.315347e+00      -9.533515e-03 
       4.335799e+00       4.312526e+00      -9.533515e-03 
       4.337792e+00       4.331453e+00       9.533515e-03 
       4.311001e+00       4.334274e+00       9.533515e-03 
       3.853762e+00      -8.052848e-03       4.329649e+00 
       3.880553e+00      -1.087395e-02       4.329649e+00 
       3.882546e+00       8.052830e-03       4.348716e+00 
       3.855755e+00       1.087393e-02       4.348716e+00 
       4.321991e+00       4.310017e+00      -1.348243e-02 
       4.342344e+00       4.321405e+00       0.000000e+00 
       4.324809e+00       4.336783e+00       1.348243e-02 
       4.304456e+00       4.325395e+00       0.000000e+00 
       3.866745e+00      -1.338326e-02       4.325701e+00 
       3.887098e+00      -1.994830e-03       4.339183e+00 
       3.869563e+00       1.338325e-02       4.352665e+00 
       3.849209e+00       1.994812e-03       4.339183e+00 
       4.081385e+00       2.153647e+00       2.160058e+00 
       4.108176e+00       2.150826e+00       2.160058e+00 
       4.110169e+00       2.169753e+00       2.179125e+00 
       4.083378e+00       2.172574e+00       2.179125e+00 
      -4.309007e+00      -4.315349e+00      -9.533632e-03 
      -4.335798e+00      -4.312525e+00      -9.533632e-03 
      -4.337793e+00      -4.331451e+00       9.533632e-03 
      -4.311002e+00      -4.334275e+00       9.533632e-03 
      -3.853251e+00       8.051034e-03       4.329596e+00 
      -3.880042e+00       1.087526e-02       4.329596e+00 
      -3.882037e+00      -8.051051e-03       4.348663e+00 
      -3.855246e+00      -1.087528e-02       4.348663e+00 
      -4.321989e+00      -4.310017e+00      -1.348259e-02 
      -4.342344e+00      -4.321403e+00       0.000000e+00 
      -4.324811e+00      -4.336783e+00       1.348259e-02 
      -4.304456e+00      -4.325397e+00       0.000000e+00 
      -3.866233e+00       1.338292e-02       4.325647e+00 
      -3.886588e+00       1.997023e-03       4.339129e+00 
      -3.869054e+00      -1.338293e-02       4.352612e+00 
      -3.848699e+00      -1.997041e-03       4.339129e+00 
      -4.081129e+00      -2.153649e+00       2.160031e+00 
      -4.107920e+00      -2.150825e+00       2.160031e+00 
      -4.109915e+00      -2.169751e+00       2.179098e+00 
      -4.083124e+00      -2.172575e+00       2.179098e+00 
      -4.315348e+00       4.309007e+00      -9.533844e-03 
      -4.312526e+00       4.335799e+00      -9.533844e-03 
      -4.331452e+00       4.337793e+00       9.533844e-03 
      -4.334274e+00       4.311001e+00       9.533844e-03 
       8.300018e-03       3.853506e+00       4.329622e+00 
       1.112252e-02       3.880298e+00       4.329622e+00 
      -7.803498e-03       3.882291e+00       4.348690e+00 
      -1.062600e-02       3.855500e+00       4.348690e+00 
      -4.310017e+00       4.321990e+00      -1.348289e-02 
      -4.321404e+00       4.342344e+00       0.000000e+00 
      -4.336783e+00       4.324810e+00       1.348289e-02 
      -4.325396e+00       4.304456e+00       0.000000e+00 
       1.363098e-02       3.866489e+00       4.325673e+00 
       2.244073e-03       3.886843e+00       4.339156e+00 
      -1.313446e-02       3.869309e+00       4.352639e+00 
      -1.747553e-03       3.848954e+00       4.339156e+00 
      -2.153524e+00       4.081257e+00       2.160044e+00 
      -2.150702e+00       4.108048e+00       2.160044e+00 
      -2.169628e+00       4.110042e+00       2.179112e+00 
      -2.172450e+00       4.083251e+00       2.179112e+00 
      -4.312526e+00      -4.335799e+00      -9.533844e-03 
      -4.315348e+00      -4.309007e+00      -9.533844e-03 
      -4.334274e+00      -4.311001e+00       9.533844e-03 
      -4.331452e+00      -4.337793e+00       9.533844e-03 
       1.112252e-02      -3.880298e+00       4.329622e+00 
       8.300018e-03      -3.853506e+00       4.329622e+00 
      -1.062600e-02      -3.855500e+00       4.348690e+00 
      -7.803498e-03      -3.882291e+00       4.348690e+00 
      -4.310017e+00      -4.321990e+00      -1.348289e-02 
      -4.325396e+00      -4.304456e+00       0.000000e+00 
      -4.336783e+00      -4.324810e+00       1.348289e-02 
      -4.321404e+00      -4.342344e+00       0.000000e+00 
       1.363098e-02      -3.866489e+00       4.325673e+00 
      -1.747553e-03      -3.848954e+00       4.339156e+00 
      -1.313446e-02      -3.869309e+00       4.352639e+00 
       2.244073e-03      -3.886843e+00       4.339156e+00 
      -2.150702e+00      -4.108048e+00       2.160044e+00 
      -2.153524e+00      -4.081257e+00       2.160044e+00 
      -2.172450e+00      -4.083251e+00       2.179112e+00 
      -2.169628e+00      -4.110042e+00       2.179112e+00 
       4.312525e+00       4.335799e+00      -9.533303e-03 
       4.315348e+00       4.309007e+00      -9.533303e-03 
       4.334275e+00       4.311001e+00       9.533303e-03 
       4.331452e+00       4.337793e+00       9.533303e-03 
      -1.062669e-02       3.880297e+00       4.329623e+00 
      -7.803864e-03       3.853506e+00       4.329623e+00 
       1.112321e-02       3.855500e+00       4.348689e+00 
       8.300384e-03       3.882292e+00       4.348689e+00 
       4.310017e+00       4.321990e+00      -1.348213e-02 
       4.325396e+00       4.304456e+00       0.000000e+00 
       4.336783e+00       4.324810e+00       1.348213e-02 
       4.321404e+00       4.342344e+00       0.000000e+00 
      -1.313520e-02       3.866489e+00       4.325674e+00 
       2.244300e-03       3.848954e+00       4.339156e+00 
       1.363172e-02       3.869309e+00       4.352638e+00 
      -1.747780e-03       3.886843e+00       4.339156e+00 
       2.150949e+00       4.108048e+00       2.160045e+00 
       2.153772e+00       4.081257e+00       2.160045e+00 
       2.172699e+00       4.083251e+00       2.179111e+00 
       2.169876e+00       4.110042e+00       2.179111e+00 
       4.335799e+00      -4.312526e+00      -9.533515e-03 
       4.309008e+00      -4.315347e+00      -9.533515e-03 
       4.311001e+00      -4.334274e+00       9.533515e-03 
       4.337792e+00      -4.331453e+00       9.533515e-03 
       3.880553e+00       1.087393e-02       4.329649e+00 
       3.853762e+00       8.052830e-03       4.329649e+00 
       3.855755e+00      -1.087395e-02       4.348716e+00 
       3.882546e+00      -8.052848e-03       4.348716e+00 
       4.321991e+00      -4.310017e+00      -1.348243e-02 
       4.304456e+00      -4.325395e+00       0.000000e+00 
       4.324809e+00      -4.336783e+00       1.348243e-02 
       4.342344e+00      -4.321405e+00       0.000000e+00 
       3.866745e+00       1.338325e-02       4.325701e+00 
       3.849209e+00      -1.994830e-03       4.339183e+00 
       3.869563e+00      -1.338326e-02       4.352665e+00 
       3.887098e+00       1.994812e-03       4.339183e+00 
       4.108176e+00      -2.150826e+00       2.160058e+00 
       4.081385e+00      -2.153647e+00       2.160058e+00 
       4.083378e+00      -2.172574e+00       2.179125e+00 
       4.110169e+00      -2.169753e+00       2.179125e+00 
       4.315348e+00      -4.309007e+00      -9.533303e-03 
       4.312525e+00      -4.335799e+00      -9.533303e-03 
       4.331452e+00      -4.337793e+00       9.533303e-03 
       4.334275e+00      -4.311001e+00       9.533303e-03 
      -7.803864e-03      -3.853506e+00       4.329623e+00 
      -1.062669e-02      -3.880297e+00       4.329623e+00 
       8.300384e-03      -3.882292e+00       4.348689e+00 
       1.112321e-02      -3.855500e+00       4.348689e+00 
       4.310017e+00      -4.321990e+00      -1.348213e-02 
       4.321404e+00      -4.342344e+00       0.000000e+00 
       4.336783e+00      -4.324810e+00       1.348213e-02 
       4.325396e+00      -4.304456e+00       0.000000e+00 
      -1.313520e-02      -3.866489e+00       4.325674e+00 
      -1.747780e-03      -3.886843e+00       4.339156e+00 
       1.363172e-02      -3.869309e+00       4.352638e+00 
       2.244300e-03      -3.848954e+00       4.339156e+00 
       2.153772e+00      -4.081257e+00       2.160045e+00 
       2.150949e+00      -4.108048e+00       2.160045e+00 
       2.169876e+00      -4.110042e+00       2.179111e+00 
       2.172699e+00      -4.083251e+00       2.179111e+00 
      -4.290298e+00      -4.323592e+00      -3.456784e-03 
      -4.323569e+00      -4.290298e+00      -3.456784e-03 
      -4.356502e+00      -4.323208e+00       3.456784e-03 
      -4.323231e+00      -4.356502e+00       3.456784e-03 
      -3.834488e+00      -3.868089e+00       4.336082e+00 
      -3.867759e+00      -3.834796e+00       4.336082e+00 
      -3.900692e+00      -3.867706e+00       4.342995e+00 
[...]
POINT_DATA     13260 
VECTORS Displacements float
       0.00000000e+00       0.00000000e+00       0.00000000e+00 
       0.00000000e+00       0.00000000e+00       0.00000000e+00 
       0.00000000e+00       0.00000000e+00       0.00000000e+00 
       0.00000000e+00       0.00000000e+00       0.00000000e+00 
       2.56310078e-04      -8.84965942e-09      -7.05771462e-05 
       2.56310078e-04      -8.84965942e-09      -7.05771462e-05 
       2.56310078e-04      -8.84965942e-09      -7.05771462e-05 
       2.56310078e-04      -8.84965942e-09      -7.05771462e-05 
       0.00000000e+00       0.00000000e+00       0.00000000e+00 
       0.00000000e+00       0.00000000e+00       0.00000000e+00 
       0.00000000e+00       0.00000000e+00       0.00000000e+00 
       0.00000000e+00       0.00000000e+00       0.00000000e+00 
       2.56310078e-04      -8.84965942e-09      -7.05771462e-05 
       2.56310078e-04      -8.84965942e-09      -7.05771462e-05 
       2.56310078e-04      -8.84965942e-09      -7.05771462e-05 
       2.56310078e-04      -8.84965942e-09      -7.05771462e-05 
       1.28155039e-04      -4.42482971e-09      -3.52885731e-05 
       1.28155039e-04      -4.42482971e-09      -3.52885731e-05 
       1.28155039e-04      -4.42482971e-09      -3.52885731e-05 
       1.28155039e-04      -4.42482971e-09      -3.52885731e-05 
       0.00000000e+00       0.00000000e+00       0.00000000e+00 
       0.00000000e+00       0.00000000e+00       0.00000000e+00 
       0.00000000e+00       0.00000000e+00       0.00000000e+00 
       0.00000000e+00       0.00000000e+00       0.00000000e+00 
       2.53924287e-04      -9.01903698e-09      -1.70271492e-05 
       2.53924287e-04      -9.01903698e-09      -1.70271492e-05 
       2.53924287e-04      -9.01903698e-09      -1.70271492e-05 
       2.53924287e-04      -9.01903698e-09      -1.70271492e-05 
       0.00000000e+00       0.00000000e+00       0.00000000e+00 
       0.00000000e+00       0.00000000e+00       0.00000000e+00 
       0.00000000e+00       0.00000000e+00       0.00000000e+00 
       0.00000000e+00       0.00000000e+00       0.00000000e+00 
       2.53924287e-04      -9.01903698e-09      -1.70271492e-05 
       2.53924287e-04      -9.01903698e-09      -1.70271492e-05 
       2.53924287e-04      -9.01903698e-09      -1.70271492e-05 
       2.53924287e-04      -9.01903698e-09      -1.70271492e-05 
       1.26962144e-04      -4.50951849e-09      -8.51357462e-06 
       1.26962144e-04      -4.50951849e-09      -8.51357462e-06 
       1.26962144e-04      -4.50951849e-09      -8.51357462e-06 
       1.26962144e-04      -4.50951849e-09      -8.51357462e-06 
       0.00000000e+00       0.00000000e+00       0.00000000e+00 
       0.00000000e+00       0.00000000e+00       0.00000000e+00 
       0.00000000e+00       0.00000000e+00       0.00000000e+00 
       0.00000000e+00       0.00000000e+00       0.00000000e+00 
       2.56310078e-04      -8.84965942e-09      -7.05771462e-05 
       2.56310078e-04      -8.84965942e-09      -7.05771462e-05 
       2.56310078e-04      -8.84965942e-09      -7.05771462e-05 
       2.56310078e-04      -8.84965942e-09      -7.05771462e-05 
       0.00000000e+00       0.00000000e+00       0.00000000e+00 
       0.00000000e+00       0.00000000e+00       0.00000000e+00 
       0.00000000e+00       0.00000000e+00       0.00000000e+00 
       0.00000000e+00       0.00000000e+00       0.00000000e+00 
       2.56310078e-04      -8.84965942e-09      -7.05771462e-05 
       2.56310078e-04      -8.84965942e-09      -7.05771462e-05 
       2.56310078e-04      -8.84965942e-09      -7.05771462e-05 
       2.56310078e-04      -8.84965942e-09      -7.05771462e-05 
       1.28155039e-04      -4.42482971e-09      -3.52885731e-05 
       1.28155039e-04      -4.42482971e-09      -3.52885731e-05 
       1.28155039e-04      -4.42482971e-09      -3.52885731e-05 
       1.28155039e-04      -4.42482971e-09      -3.52885731e-05 
       0.00000000e+00       0.00000000e+00       0.00000000e+00 
       0.00000000e+00       0.00000000e+00       0.00000000e+00 
       0.00000000e+00       0.00000000e+00       0.00000000e+00 
       0.00000000e+00       0.00000000e+00       0.00000000e+00 
       2.48260199e-04      -1.20329819e-06      -4.38166912e-05 
       2.48260199e-04      -1.20329819e-06      -4.38166912e-05 
       2.48260199e-04      -1.20329819e-06      -4.38166912e-05 
       2.48260199e-04      -1.20329819e-06      -4.38166912e-05 
       0.00000000e+00       0.00000000e+00       0.00000000e+00 
       0.00000000e+00       0.00000000e+00       0.00000000e+00 
       0.00000000e+00       0.00000000e+00       0.00000000e+00 
       0.00000000e+00       0.00000000e+00       0.00000000e+00 
       2.48260199e-04      -1.20329819e-06      -4.38166912e-05 
       2.48260199e-04      -1.20329819e-06      -4.38166912e-05 
       2.48260199e-04      -1.20329819e-06      -4.38166912e-05 
       2.48260199e-04      -1.20329819e-06      -4.38166912e-05 
       1.24130099e-04      -6.01649095e-07      -2.19083456e-05 
       1.24130099e-04      -6.01649095e-07      -2.19083456e-05 
       1.24130099e-04      -6.01649095e-07      -2.19083456e-05 
       1.24130099e-04      -6.01649095e-07      -2.19083456e-05 
       0.00000000e+00       0.00000000e+00       0.00000000e+00 
       0.00000000e+00       0.00000000e+00       0.00000000e+00 
       0.00000000e+00       0.00000000e+00       0.00000000e+00 
       0.00000000e+00       0.00000000e+00       0.00000000e+00 
       2.48260050e-04       1.18542926e-06      -4.38148151e-05 
       2.48260050e-04       1.18542926e-06      -4.38148151e-05 
       2.48260050e-04       1.18542926e-06      -4.38148151e-05 
       2.48260050e-04       1.18542926e-06      -4.38148151e-05 
       0.00000000e+00       0.00000000e+00       0.00000000e+00 
       0.00000000e+00       0.00000000e+00       0.00000000e+00 
       0.00000000e+00       0.00000000e+00       0.00000000e+00 
       0.00000000e+00       0.00000000e+00       0.00000000e+00 
       2.48260050e-04       1.18542926e-06      -4.38148151e-05 
       2.48260050e-04       1.18542926e-06      -4.38148151e-05 
       2.48260050e-04       1.18542926e-06      -4.38148151e-05 
       2.48260050e-04       1.18542926e-06      -4.38148151e-05 
       1.24130025e-04       5.92714628e-07      -2.19074075e-05 
       1.24130025e-04       5.92714628e-07      -2.19074075e-05 
       1.24130025e-04       5.92714628e-07      -2.19074075e-05 
       1.24130025e-04       5.92714628e-07      -2.19074075e-05 
       0.00000000e+00       0.00000000e+00       0.00000000e+00 
       0.00000000e+00       0.00000000e+00       0.00000000e+00 
       0.00000000e+00       0.00000000e+00       0.00000000e+00 
       0.00000000e+00       0.00000000e+00       0.00000000e+00 
       2.48260199e-04      -1.20329819e-06      -4.38166912e-05 
       2.48260199e-04      -1.20329819e-06      -4.38166912e-05 
       2.48260199e-04      -1.20329819e-06      -4.38166912e-05 
       2.48260199e-04      -1.20329819e-06      -4.38166912e-05 
       0.00000000e+00       0.00000000e+00       0.00000000e+00 
       0.00000000e+00       0.00000000e+00       0.00000000e+00 
       0.00000000e+00       0.00000000e+00       0.00000000e+00 
       0.00000000e+00       0.00000000e+00       0.00000000e+00 
       2.48260199e-04      -1.20329819e-06      -4.38166912e-05 
       2.48260199e-04      -1.20329819e-06      -4.38166912e-05 
       2.48260199e-04      -1.20329819e-06      -4.38166912e-05 
       2.48260199e-04      -1.20329819e-06      -4.38166912e-05 
       1.24130099e-04      -6.01649095e-07      -2.19083456e-05 
       1.24130099e-04      -6.01649095e-07      -2.19083456e-05 
       1.24130099e-04      -6.01649095e-07      -2.19083456e-05 
       1.24130099e-04      -6.01649095e-07      -2.19083456e-05 
       0.00000000e+00       0.00000000e+00       0.00000000e+00 
       0.00000000e+00       0.00000000e+00       0.00000000e+00 
       0.00000000e+00       0.00000000e+00       0.00000000e+00 
       0.00000000e+00       0.00000000e+00       0.00000000e+00 
       2.53924287e-04      -9.01903698e-09      -1.70271492e-05 
       2.53924287e-04      -9.01903698e-09      -1.70271492e-05 
       2.53924287e-04      -9.01903698e-09      -1.70271492e-05 
       2.53924287e-04      -9.01903698e-09      -1.70271492e-05 
       0.00000000e+00       0.00000000e+00       0.00000000e+00 
       0.00000000e+00       0.00000000e+00       0.00000000e+00 
       0.00000000e+00       0.00000000e+00       0.00000000e+00 
       0.00000000e+00       0.00000000e+00       0.00000000e+00 
       2.53924287e-04      -9.01903698e-09      -1.70271492e-05 
       2.53924287e-04      -9.01903698e-09      -1.70271492e-05 
       2.53924287e-04      -9.01903698e-09      -1.70271492e-05 
       2.53924287e-04      -9.01903698e-09      -1.70271492e-05 
       1.26962144e-04      -4.50951849e-09      -8.51357462e-06 
       1.26962144e-04      -4.50951849e-09      -8.51357462e-06 
       1.26962144e-04      -4.50951849e-09      -8.51357462e-06 
       1.26962144e-04      -4.50951849e-09      -8.51357462e-06 
       0.00000000e+00       0.00000000e+00       0.00000000e+00 
       0.00000000e+00       0.00000000e+00       0.00000000e+00 
       0.00000000e+00       0.00000000e+00       0.00000000e+00 
       0.00000000e+00       0.00000000e+00       0.00000000e+00 
       2.48260050e-04       1.18542926e-06      -4.38148151e-05 
       2.48260050e-04       1.18542926e-06      -4.38148151e-05 
       2.48260050e-04       1.18542926e-06      -4.38148151e-05 
       2.48260050e-04       1.18542926e-06      -4.38148151e-05 
       0.00000000e+00       0.00000000e+00       0.00000000e+00 
       0.00000000e+00       0.00000000e+00       0.00000000e+00 
       0.00000000e+00       0.00000000e+00       0.00000000e+00 
       0.00000000e+00       0.00000000e+00       0.00000000e+00 
       2.48260050e-04       1.18542926e-06      -4.38148151e-05 
       2.48260050e-04       1.18542926e-06      -4.38148151e-05 
       2.48260050e-04       1.18542926e-06      -4.38148151e-05 
       2.48260050e-04       1.18542926e-06      -4.38148151e-05 
       1.24130025e-04       5.92714628e-07      -2.19074075e-05 
       1.24130025e-04       5.92714628e-07      -2.19074075e-05 
       1.24130025e-04       5.92714628e-07      -2.19074075e-05 
       1.24130025e-04       5.92714628e-07      -2.19074075e-05 
       0.00000000e+00       0.00000000e+00       0.00000000e+00 
       0.00000000e+00       0.00000000e+00       0.00000000e+00 
       0.00000000e+00       0.00000000e+00       0.00000000e+00 
       0.00000000e+00       0.00000000e+00       0.00000000e+00 
       3.09884582e-04       2.45687940e-06       3.38309268e-04 
       3.09884582e-04       2.45687940e-06       3.38309268e-04 
       3.09884582e-04       2.45687940e-06       3.38309268e-04 
       3.09884582e-04       2.45687940e-06       3.38309268e-04 
       0.00000000e+00       0.00000000e+00       0.00000000e+00 
       0.00000000e+00       0.00000000e+00       0.00000000e+00 
       0.00000000e+00       0.00000000e+00       0.00000000e+00 
       0.00000000e+00       0.00000000e+00       0.00000000e+00 
       3.09884582e-04       2.45687940e-06       3.38309268e-04 
       3.09884582e-04       2.45687940e-06       3.38309268e-04 
       3.09884582e-04       2.45687940e-06       3.38309268e-04 
       3.09884582e-04       2.45687940e-06       3.38309268e-04 
       1.54942291e-04       1.22843970e-06       1.69154634e-04 
       1.54942291e-04       1.22843970e-06       1.69154634e-04 
       1.54942291e-04       1.22843970e-06       1.69154634e-04 
       1.54942291e-04       1.22843970e-06       1.69154634e-04 
       0.00000000e+00       0.00000000e+00       0.00000000e+00 
       0.00000000e+00       0.00000000e+00       0.00000000e+00 
       0.00000000e+00       0.00000000e+00       0.00000000e+00 
       0.00000000e+00       0.00000000e+00       0.00000000e+00 
       3.31813291e-04      -2.39497021e-05      -6.79500630e-04 
       3.31813291e-04      -2.39497021e-05      -6.79500630e-04 
       3.31813291e-04      -2.39497021e-05      -6.79500630e-04 
       3.31813291e-04      -2.39497021e-05      -6.79500630e-04 
       0.00000000e+00       0.00000000e+00       0.00000000e+00 
       0.00000000e+00       0.00000000e+00       0.00000000e+00 
       0.00000000e+00       0.00000000e+00       0.00000000e+00 
       0.00000000e+00       0.00000000e+00       0.00000000e+00 
       3.31813291e-04      -2.39497021e-05      -6.79500630e-04 
       3.31813291e-04      -2.39497021e-05      -6.79500630e-04 
       3.31813291e-04      -2.39497021e-05      -6.79500630e-04 
       3.31813291e-04      -2.39497021e-05      -6.79500630e-04 
       1.65906646e-04      -1.19748510e-05      -3.39750315e-04 
       1.65906646e-04      -1.19748510e-05      -3.39750315e-04 
       1.65906646e-04      -1.19748510e-05      -3.39750315e-04 
       1.65906646e-04      -1.19748510e-05      -3.39750315e-04 
       0.00000000e+00       0.00000000e+00       0.00000000e+00 
       0.00000000e+00       0.00000000e+00       0.00000000e+00 
       0.00000000e+00       0.00000000e+00       0.00000000e+00 
       0.00000000e+00       0.00000000e+00       0.00000000e+00 
       3.31814570e-04       2.39260254e-05      -6.79523143e-04 
       3.31814570e-04       2.39260254e-05      -6.79523143e-04 
       3.31814570e-04       2.39260254e-05      -6.79523143e-04 
       3.31814570e-04       2.39260254e-05      -6.79523143e-04 
       0.00000000e+00       0.00000000e+00       0.00000000e+00 
       0.00000000e+00       0.00000000e+00       0.00000000e+00 
       0.00000000e+00       0.00000000e+00       0.00000000e+00 
       0.00000000e+00       0.00000000e+00       0.00000000e+00 
       3.31814570e-04       2.39260254e-05      -6.79523143e-04 
       3.31814570e-04       2.39260254e-05      -6.79523143e-04 
       3.31814570e-04       2.39260254e-05      -6.79523143e-04 
       3.31814570e-04       2.39260254e-05      -6.79523143e-04 
       1.65907285e-04       1.19630127e-05      -3.39761571e-04 
       1.65907285e-04       1.19630127e-05      -3.39761571e-04 
       1.65907285e-04       1.19630127e-05      -3.39761571e-04 
       1.65907285e-04       1.19630127e-05      -3.39761571e-04 
       0.00000000e+00       0.00000000e+00       0.00000000e+00 
       0.00000000e+00       0.00000000e+00       0.00000000e+00 
       0.00000000e+00       0.00000000e+00       0.00000000e+00 
       0.00000000e+00       0.00000000e+00       0.00000000e+00 
       3.09883674e-04      -2.48009096e-06       3.38286778e-04 
       3.09883674e-04      -2.48009096e-06       3.38286778e-04 
       3.09883674e-04      -2.48009096e-06       3.38286778e-04 
       3.09883674e-04      -2.48009096e-06       3.38286778e-04 
       0.00000000e+00       0.00000000e+00       0.00000000e+00 
       0.00000000e+00       0.00000000e+00       0.00000000e+00 
       0.00000000e+00       0.00000000e+00       0.00000000e+00 
       0.00000000e+00       0.00000000e+00       0.00000000e+00 
       3.09883674e-04      -2.48009096e-06       3.38286778e-04 
       3.09883674e-04      -2.48009096e-06       3.38286778e-04 
       3.09883674e-04      -2.48009096e-06       3.38286778e-04 
       3.09883674e-04      -2.48009096e-06       3.38286778e-04 
       1.54941837e-04      -1.24004548e-06       1.69143389e-04 
       1.54941837e-04      -1.24004548e-06       1.69143389e-04 
       1.54941837e-04      -1.24004548e-06       1.69143389e-04 
       1.54941837e-04      -1.24004548e-06       1.69143389e-04 
       2.56310078e-04      -8.84965942e-09      -7.05771462e-05 
       2.56310078e-04      -8.84965942e-09      -7.05771462e-05 
       2.56310078e-04      -8.84965942e-09      -7.05771462e-05 
       2.56310078e-04      -8.84965942e-09      -7.05771462e-05 
       3.09883674e-04      -2.48009096e-06       3.38286778e-04 
       3.09883674e-04      -2.48009096e-06       3.38286778e-04 
       3.09883674e-04      -2.48009096e-06       3.38286778e-04 
       3.09883674e-04      -2.48009096e-06       3.38286778e-04 
       2.56310078e-04      -8.84965942e-09      -7.05771462e-05 
       2.56310078e-04      -8.84965942e-09      -7.05771462e-05 
       2.56310078e-04      -8.84965942e-09      -7.05771462e-05 
       2.56310078e-04      -8.84965942e-09      -7.05771462e-05 
       3.09883674e-04      -2.48009096e-06       3.38286778e-04 
       3.09883674e-04      -2.48009096e-06       3.38286778e-04 
       3.09883674e-04      -2.48009096e-06       3.38286778e-04 
       3.09883674e-04      -2.48009096e-06       3.38286778e-04 
       2.83096876e-04      -1.24447031e-06       1.33854816e-04 
       2.83096876e-04      -1.24447031e-06       1.33854816e-04 
       2.83096876e-04      -1.24447031e-06       1.33854816e-04 
       2.83096876e-04      -1.24447031e-06       1.33854816e-04 
       2.56310078e-04      -8.84965942e-09      -7.05771462e-05 
       2.56310078e-04      -8.84965942e-09      -7.05771462e-05 
       2.56310078e-04      -8.84965942e-09      -7.05771462e-05 
       2.56310078e-04      -8.84965942e-09      -7.05771462e-05 
       3.09884582e-04       2.45687940e-06       3.38309268e-04 
       3.09884582e-04       2.45687940e-06       3.38309268e-04 
       3.09884582e-04       2.45687940e-06       3.38309268e-04 
       3.09884582e-04       2.45687940e-06       3.38309268e-04 
       2.56310078e-04      -8.84965942e-09      -7.05771462e-05 
       2.56310078e-04      -8.84965942e-09      -7.05771462e-05 
       2.56310078e-04      -8.84965942e-09      -7.05771462e-05 
       2.56310078e-04      -8.84965942e-09      -7.05771462e-05 
       3.09884582e-04       2.45687940e-06       3.38309268e-04 
       3.09884582e-04       2.45687940e-06       3.38309268e-04 
       3.09884582e-04       2.45687940e-06       3.38309268e-04 
       3.09884582e-04       2.45687940e-06       3.38309268e-04 
       2.83097330e-04       1.22401487e-06       1.33866061e-04 
       2.83097330e-04       1.22401487e-06       1.33866061e-04 
       2.83097330e-04       1.22401487e-06       1.33866061e-04 
       2.83097330e-04       1.22401487e-06       1.33866061e-04 
       2.53924287e-04      -9.01903698e-09      -1.70271492e-05 
       2.53924287e-04      -9.01903698e-09      -1.70271492e-05 
       2.53924287e-04      -9.01903698e-09      -1.70271492e-05 
       2.53924287e-04      -9.01903698e-09      -1.70271492e-05 
       3.31814570e-04       2.39260254e-05      -6.79523143e-04 
       3.31814570e-04       2.39260254e-05      -6.79523143e-04 
       3.31814570e-04       2.39260254e-05      -6.79523143e-04 
       3.31814570e-04       2.39260254e-05      -6.79523143e-04 
       2.53924287e-04      -9.01903698e-09      -1.70271492e-05 
       2.53924287e-04      -9.01903698e-09      -1.70271492e-05 
       2.53924287e-04      -9.01903698e-09      -1.70271492e-05 
       2.53924287e-04      -9.01903698e-09      -1.70271492e-05 
       3.31814570e-04       2.39260254e-05      -6.79523143e-04 
       3.31814570e-04       2.39260254e-05      -6.79523143e-04 
       3.31814570e-04       2.39260254e-05      -6.79523143e-04 
       3.31814570e-04       2.39260254e-05      -6.79523143e-04 
       2.92869429e-04       1.19585032e-05      -3.48275146e-04 
       2.92869429e-04       1.19585032e-05      -3.48275146e-04 
       2.92869429e-04       1.19585032e-05      -3.48275146e-04 
       2.92869429e-04       1.19585032e-05      -3.48275146e-04 
       2.53924287e-04      -9.01903698e-09      -1.70271492e-05 
       2.53924287e-04      -9.01903698e-09      -1.70271492e-05 
       2.53924287e-04      -9.01903698e-09      -1.70271492e-05 
       2.53924287e-04      -9.01903698e-09      -1.70271492e-05 
       2.48260050e-04       1.18542926e-06      -4.38148151e-05 
       2.48260050e-04       1.18542926e-06      -4.38148151e-05 