# vtk DataFile Version 2.0
./output/Static_Tower/Static_Tower_0007.vtk
ASCII
DATASET UNSTRUCTURED_GRID

POINTS 13260 float
      -4.427465e+00       4.404287e+00      -9.630350e-03 
      -4.400659e+00       4.406971e+00      -9.630350e-03 
      -4.402535e+00       4.425713e+00       9.630350e-03 
      -4.429341e+00       4.423029e+00       9.630350e-03 
      -3.985511e+00      -1.071254e-02       4.329457e+00 
      -3.958705e+00      -8.029208e-03       4.329457e+00 
      -3.960581e+00       1.071252e-02       4.348718e+00 
      -3.987387e+00       8.029188e-03       4.348718e+00 
      -4.413673e+00       4.401748e+00      -1.361937e-02 
      -4.396045e+00       4.416897e+00       0.000000e+00 
      -4.416327e+00       4.428252e+00       1.361937e-02 
      -4.433955e+00       4.413103e+00       0.000000e+00 
      -3.971719e+00      -1.325241e-02       4.325468e+00 
      -3.954091e+00       1.897390e-03       4.339087e+00 
      -3.974372e+00       1.325239e-02       4.352707e+00 
      -3.992000e+00      -1.897410e-03       4.339087e+00 
      -4.206488e+00       2.196787e+00       2.159913e+00 
      -4.179682e+00       2.199471e+00       2.159913e+00 
      -4.181558e+00       2.218213e+00       2.179174e+00 
      -4.208364e+00       2.215529e+00       2.179174e+00 
       4.400661e+00       4.406966e+00      -9.630068e-03 
       4.427468e+00       4.404291e+00      -9.630068e-03 
       4.429339e+00       4.423034e+00       9.630068e-03 
       4.402532e+00       4.425709e+00       9.630068e-03 
       3.960013e+00      -8.033694e-03       4.329590e+00 
       3.986820e+00      -1.070917e-02       4.329590e+00 
       3.988690e+00       8.033673e-03       4.348850e+00 
       3.961884e+00       1.070915e-02       4.348850e+00 
       4.413677e+00       4.401747e+00      -1.361897e-02 
       4.433955e+00       4.413108e+00       0.000000e+00 
       4.416323e+00       4.428253e+00       1.361897e-02 
       4.396045e+00       4.416892e+00       0.000000e+00 
       3.973029e+00      -1.325320e-02       4.325601e+00 
       3.993307e+00      -1.891860e-03       4.339220e+00 
       3.975674e+00       1.325318e-02       4.352839e+00 
       3.955397e+00       1.891839e-03       4.339220e+00 
       4.180337e+00       2.199466e+00       2.159980e+00 
       4.207144e+00       2.196791e+00       2.159980e+00 
       4.209014e+00       2.215534e+00       2.179240e+00 
       4.182208e+00       2.218209e+00       2.179240e+00 
      -4.400659e+00      -4.406971e+00      -9.630350e-03 
      -4.427465e+00      -4.404287e+00      -9.630350e-03 
      -4.429341e+00      -4.423029e+00       9.630350e-03 
      -4.402535e+00      -4.425713e+00       9.630350e-03 
      -3.958705e+00       8.029188e-03       4.329457e+00 
      -3.985511e+00       1.071252e-02       4.329457e+00 
      -3.987387e+00      -8.029208e-03       4.348718e+00 
      -3.960581e+00      -1.071254e-02       4.348718e+00 
      -4.413673e+00      -4.401748e+00      -1.361937e-02 
      -4.433955e+00      -4.413103e+00       0.000000e+00 
      -4.416327e+00      -4.428252e+00       1.361937e-02 
      -4.396045e+00      -4.416897e+00       0.000000e+00 
      -3.971719e+00       1.325239e-02       4.325468e+00 
      -3.992000e+00       1.897390e-03       4.339087e+00 
      -3.974372e+00      -1.325241e-02       4.352707e+00 
      -3.954091e+00      -1.897410e-03       4.339087e+00 
      -4.179682e+00      -2.199471e+00       2.159913e+00 
      -4.206488e+00      -2.196787e+00       2.159913e+00 
      -4.208364e+00      -2.215529e+00       2.179174e+00 
      -4.181558e+00      -2.218213e+00       2.179174e+00 
      -4.406969e+00       4.400660e+00      -9.630881e-03 
      -4.404290e+00       4.427467e+00      -9.630881e-03 
      -4.423031e+00       4.429340e+00       9.630881e-03 
      -4.425710e+00       4.402533e+00       9.630881e-03 
       8.667416e-03       3.959359e+00       4.329523e+00 
       1.134644e-02       3.986165e+00       4.329523e+00 
      -7.394507e-03       3.988038e+00       4.348785e+00 
      -1.007353e-02       3.961232e+00       4.348785e+00 
      -4.401748e+00       4.413676e+00      -1.362012e-02 
      -4.413106e+00       4.433955e+00       0.000000e+00 
      -4.428252e+00       4.416324e+00       1.362012e-02 
      -4.416894e+00       4.396045e+00       0.000000e+00 
       1.388830e-02       3.972374e+00       4.325534e+00 
       2.530809e-03       3.992654e+00       4.339154e+00 
      -1.261539e-02       3.975023e+00       4.352774e+00 
      -1.257900e-03       3.954744e+00       4.339154e+00 
      -2.199151e+00       4.180010e+00       2.159946e+00 
      -2.196472e+00       4.206816e+00       2.159946e+00 
      -2.215213e+00       4.208689e+00       2.179208e+00 
      -2.217892e+00       4.181883e+00       2.179208e+00 
      -4.404290e+00      -4.427467e+00      -9.630881e-03 
      -4.406969e+00      -4.400660e+00      -9.630881e-03 
      -4.425710e+00      -4.402533e+00       9.630881e-03 
      -4.423031e+00      -4.429340e+00       9.630881e-03 
       1.134644e-02      -3.986165e+00       4.329523e+00 
       8.667416e-03      -3.959359e+00       4.329523e+00 
      -1.007353e-02      -3.961232e+00       4.348785e+00 
      -7.394508e-03      -3.988038e+00       4.348785e+00 
      -4.401748e+00      -4.413676e+00      -1.362012e-02 
      -4.416894e+00      -4.396045e+00       0.000000e+00 
      -4.428252e+00      -4.416324e+00       1.362012e-02 
      -4.413106e+00      -4.433955e+00       0.000000e+00 
       1.388830e-02      -3.972374e+00       4.325534e+00 
      -1.257900e-03      -3.954744e+00       4.339154e+00 
      -1.261539e-02      -3.975023e+00       4.352774e+00 
       2.530808e-03      -3.992654e+00       4.339154e+00 
      -2.196472e+00      -4.206816e+00       2.159946e+00 
      -2.199151e+00      -4.180010e+00       2.159946e+00 
      -2.217892e+00      -4.181883e+00       2.179208e+00 
      -2.215213e+00      -4.208689e+00       2.179208e+00 
       4.404288e+00       4.427466e+00      -9.629537e-03 
       4.406968e+00       4.400660e+00      -9.629537e-03 
       4.425712e+00       4.402534e+00       9.629537e-03 
       4.423032e+00       4.429340e+00       9.629537e-03 
      -1.007525e-02       3.986165e+00       4.329524e+00 
      -7.395465e-03       3.959359e+00       4.329524e+00 
       1.134816e-02       3.961233e+00       4.348783e+00 
       8.668374e-03       3.988039e+00       4.348783e+00 
       4.401746e+00       4.413675e+00      -1.361822e-02 
       4.416895e+00       4.396045e+00       0.000000e+00 
       4.428254e+00       4.416325e+00       1.361822e-02 
       4.413105e+00       4.433955e+00       0.000000e+00 
      -1.261729e-02       3.972374e+00       4.325535e+00 
       2.531349e-03       3.954744e+00       4.339154e+00 
       1.389020e-02       3.975024e+00       4.352772e+00 
      -1.258441e-03       3.992654e+00       4.339154e+00 
       2.197107e+00       4.206816e+00       2.159947e+00 
       2.199786e+00       4.180009e+00       2.159947e+00 
       2.218530e+00       4.181883e+00       2.179206e+00 
       2.215850e+00       4.208689e+00       2.179206e+00 
       4.427468e+00      -4.404291e+00      -9.630068e-03 
       4.400661e+00      -4.406966e+00      -9.630068e-03 
       4.402532e+00      -4.425709e+00       9.630068e-03 
       4.429339e+00      -4.423034e+00       9.630068e-03 
       3.986820e+00       1.070915e-02       4.329590e+00 
       3.960013e+00       8.033673e-03       4.329590e+00 
       3.961884e+00      -1.070917e-02       4.348850e+00 
       3.988690e+00      -8.033694e-03       4.348850e+00 
       4.413677e+00      -4.401747e+00      -1.361897e-02 
       4.396045e+00      -4.416892e+00       0.000000e+00 
       4.416323e+00      -4.428253e+00       1.361897e-02 
       4.433955e+00      -4.413108e+00       0.000000e+00 
       3.973029e+00       1.325318e-02       4.325601e+00 
       3.955397e+00      -1.891860e-03       4.339220e+00 
       3.975674e+00      -1.325320e-02       4.352839e+00 
       3.993307e+00       1.891839e-03       4.339220e+00 
       4.207144e+00      -2.196791e+00       2.159980e+00 
       4.180337e+00      -2.199466e+00       2.159980e+00 
       4.182208e+00      -2.218209e+00       2.179240e+00 
       4.209014e+00      -2.215534e+00       2.179240e+00 
       4.406968e+00      -4.400660e+00      -9.629537e-03 
       4.404288e+00      -4.427466e+00      -9.629537e-03 
       4.423032e+00      -4.429340e+00       9.629537e-03 
       4.425712e+00      -4.402534e+00       9.629537e-03 
      -7.395466e-03      -3.959359e+00       4.329524e+00 
      -1.007525e-02      -3.986165e+00       4.329524e+00 
       8.668374e-03      -3.988039e+00       4.348783e+00 
       1.134816e-02      -3.961233e+00       4.348783e+00 
       4.401746e+00      -4.413675e+00      -1.361822e-02 
       4.413105e+00      -4.433955e+00       0.000000e+00 
       4.428254e+00      -4.416325e+00       1.361822e-02 
       4.416895e+00      -4.396045e+00       0.000000e+00 
      -1.261729e-02      -3.972374e+00       4.325535e+00 
      -1.258441e-03      -3.992654e+00       4.339154e+00 
       1.389020e-02      -3.975024e+00       4.352772e+00 
       2.531349e-03      -3.954744e+00       4.339154e+00 
       2.199786e+00      -4.180009e+00       2.159947e+00 
       2.197107e+00      -4.206816e+00       2.159947e+00 
       2.215850e+00      -4.208689e+00       2.179206e+00 
       2.218530e+00      -4.181883e+00       2.179206e+00 
      -4.381888e+00      -4.415200e+00      -3.352756e-03 
      -4.415140e+00      -4.381887e+00      -3.352756e-03 
      -4.448112e+00      -4.414800e+00       3.352756e-03 
      -4.414860e+00      -4.448113e+00       3.352756e-03 
      -3.939768e+00      -3.973881e+00       4.336817e+00 
      -3.973020e+00      -3.940569e+00       4.336817e+00 
      -4.005993e+00      -3.973482e+00       4.343523e+00 
[...]
POINT_DATA     13260 
VECTORS Displacements float
       0.00000000e+00       0.00000000e+00       0.00000000e+00 
       0.00000000e+00       0.00000000e+00       0.00000000e+00 
       0.00000000e+00       0.00000000e+00       0.00000000e+00 
       0.00000000e+00       0.00000000e+00       0.00000000e+00 
       6.54103900e-04      -1.00822923e-08      -1.12616652e-04 
       6.54103900e-04      -1.00822923e-08      -1.12616652e-04 
       6.54103900e-04      -1.00822923e-08      -1.12616652e-04 
       6.54103900e-04      -1.00822923e-08      -1.12616652e-04 
       0.00000000e+00       0.00000000e+00       0.00000000e+00 
       0.00000000e+00       0.00000000e+00       0.00000000e+00 
       0.00000000e+00       0.00000000e+00       0.00000000e+00 
       0.00000000e+00       0.00000000e+00       0.00000000e+00 
       6.54103900e-04      -1.00822923e-08      -1.12616652e-04 
       6.54103900e-04      -1.00822923e-08      -1.12616652e-04 
       6.54103900e-04      -1.00822923e-08      -1.12616652e-04 
       6.54103900e-04      -1.00822923e-08      -1.12616652e-04 
       3.27051950e-04      -5.04114615e-09      -5.63083259e-05 
       3.27051950e-04      -5.04114615e-09      -5.63083259e-05 
       3.27051950e-04      -5.04114615e-09      -5.63083259e-05 
       3.27051950e-04      -5.04114615e-09      -5.63083259e-05 
       0.00000000e+00       0.00000000e+00       0.00000000e+00 
       0.00000000e+00       0.00000000e+00       0.00000000e+00 
       0.00000000e+00       0.00000000e+00       0.00000000e+00 
       0.00000000e+00       0.00000000e+00       0.00000000e+00 
       6.51681269e-04      -1.04937798e-08       2.01599988e-05 
       6.51681269e-04      -1.04937798e-08       2.01599988e-05 
       6.51681269e-04      -1.04937798e-08       2.01599988e-05 
       6.51681269e-04      -1.04937798e-08       2.01599988e-05 
       0.00000000e+00       0.00000000e+00       0.00000000e+00 
       0.00000000e+00       0.00000000e+00       0.00000000e+00 
       0.00000000e+00       0.00000000e+00       0.00000000e+00 
       0.00000000e+00       0.00000000e+00       0.00000000e+00 
       6.51681269e-04      -1.04937798e-08       2.01599988e-05 
       6.51681269e-04      -1.04937798e-08       2.01599988e-05 
       6.51681269e-04      -1.04937798e-08       2.01599988e-05 
       6.51681269e-04      -1.04937798e-08       2.01599988e-05 
       3.25840635e-04      -5.24688992e-09       1.00799994e-05 
       3.25840635e-04      -5.24688992e-09       1.00799994e-05 
       3.25840635e-04      -5.24688992e-09       1.00799994e-05 
       3.25840635e-04      -5.24688992e-09       1.00799994e-05 
       0.00000000e+00       0.00000000e+00       0.00000000e+00 
       0.00000000e+00       0.00000000e+00       0.00000000e+00 
       0.00000000e+00       0.00000000e+00       0.00000000e+00 
       0.00000000e+00       0.00000000e+00       0.00000000e+00 
       6.54103900e-04      -1.00822923e-08      -1.12616652e-04 
       6.54103900e-04      -1.00822923e-08      -1.12616652e-04 
       6.54103900e-04      -1.00822923e-08      -1.12616652e-04 
       6.54103900e-04      -1.00822923e-08      -1.12616652e-04 
       0.00000000e+00       0.00000000e+00       0.00000000e+00 
       0.00000000e+00       0.00000000e+00       0.00000000e+00 
       0.00000000e+00       0.00000000e+00       0.00000000e+00 
       0.00000000e+00       0.00000000e+00       0.00000000e+00 
       6.54103900e-04      -1.00822923e-08      -1.12616652e-04 
       6.54103900e-04      -1.00822923e-08      -1.12616652e-04 
       6.54103900e-04      -1.00822923e-08      -1.12616652e-04 
       6.54103900e-04      -1.00822923e-08      -1.12616652e-04 
       3.27051950e-04      -5.04114615e-09      -5.63083259e-05 
       3.27051950e-04      -5.04114615e-09      -5.63083259e-05 
       3.27051950e-04      -5.04114615e-09      -5.63083259e-05 
       3.27051950e-04      -5.04114615e-09      -5.63083259e-05 
       0.00000000e+00       0.00000000e+00       0.00000000e+00 
       0.00000000e+00       0.00000000e+00       0.00000000e+00 
       0.00000000e+00       0.00000000e+00       0.00000000e+00 
       0.00000000e+00       0.00000000e+00       0.00000000e+00 
       6.36454407e-04      -1.23036783e-06      -4.63072312e-05 
       6.36454407e-04      -1.23036783e-06      -4.63072312e-05 
       6.36454407e-04      -1.23036783e-06      -4.63072312e-05 
       6.36454407e-04      -1.23036783e-06      -4.63072312e-05 
       0.00000000e+00       0.00000000e+00       0.00000000e+00 
       0.00000000e+00       0.00000000e+00       0.00000000e+00 
       0.00000000e+00       0.00000000e+00       0.00000000e+00 
       0.00000000e+00       0.00000000e+00       0.00000000e+00 
       6.36454407e-04      -1.23036783e-06      -4.63072312e-05 
       6.36454407e-04      -1.23036783e-06      -4.63072312e-05 
       6.36454407e-04      -1.23036783e-06      -4.63072312e-05 
       6.36454407e-04      -1.23036783e-06      -4.63072312e-05 
       3.18227203e-04      -6.15183915e-07      -2.31536156e-05 
       3.18227203e-04      -6.15183915e-07      -2.31536156e-05 
       3.18227203e-04      -6.15183915e-07      -2.31536156e-05 
       3.18227203e-04      -6.15183915e-07      -2.31536156e-05 
       0.00000000e+00       0.00000000e+00       0.00000000e+00 
       0.00000000e+00       0.00000000e+00       0.00000000e+00 
       0.00000000e+00       0.00000000e+00       0.00000000e+00 
       0.00000000e+00       0.00000000e+00       0.00000000e+00 
       6.36454062e-04       1.20979140e-06      -4.63051381e-05 
       6.36454062e-04       1.20979140e-06      -4.63051381e-05 
       6.36454062e-04       1.20979140e-06      -4.63051381e-05 
       6.36454062e-04       1.20979140e-06      -4.63051381e-05 
       0.00000000e+00       0.00000000e+00       0.00000000e+00 
       0.00000000e+00       0.00000000e+00       0.00000000e+00 
       0.00000000e+00       0.00000000e+00       0.00000000e+00 
       0.00000000e+00       0.00000000e+00       0.00000000e+00 
       6.36454062e-04       1.20979140e-06      -4.63051381e-05 
       6.36454062e-04       1.20979140e-06      -4.63051381e-05 
       6.36454062e-04       1.20979140e-06      -4.63051381e-05 
       6.36454062e-04       1.20979140e-06      -4.63051381e-05 
       3.18227031e-04       6.04895700e-07      -2.31525690e-05 
       3.18227031e-04       6.04895700e-07      -2.31525690e-05 
       3.18227031e-04       6.04895700e-07      -2.31525690e-05 
       3.18227031e-04       6.04895700e-07      -2.31525690e-05 
       0.00000000e+00       0.00000000e+00       0.00000000e+00 
       0.00000000e+00       0.00000000e+00       0.00000000e+00 
       0.00000000e+00       0.00000000e+00       0.00000000e+00 
       0.00000000e+00       0.00000000e+00       0.00000000e+00 
       6.36454407e-04      -1.23036783e-06      -4.63072312e-05 
       6.36454407e-04      -1.23036783e-06      -4.63072312e-05 
       6.36454407e-04      -1.23036783e-06      -4.63072312e-05 
       6.36454407e-04      -1.23036783e-06      -4.63072312e-05 
       0.00000000e+00       0.00000000e+00       0.00000000e+00 
       0.00000000e+00       0.00000000e+00       0.00000000e+00 
       0.00000000e+00       0.00000000e+00       0.00000000e+00 
       0.00000000e+00       0.00000000e+00       0.00000000e+00 
       6.36454407e-04      -1.23036783e-06      -4.63072312e-05 
       6.36454407e-04      -1.23036783e-06      -4.63072312e-05 
       6.36454407e-04      -1.23036783e-06      -4.63072312e-05 
       6.36454407e-04      -1.23036783e-06      -4.63072312e-05 
       3.18227203e-04      -6.15183915e-07      -2.31536156e-05 
       3.18227203e-04      -6.15183915e-07      -2.31536156e-05 
       3.18227203e-04      -6.15183915e-07      -2.31536156e-05 
       3.18227203e-04      -6.15183915e-07      -2.31536156e-05 
       0.00000000e+00       0.00000000e+00       0.00000000e+00 
       0.00000000e+00       0.00000000e+00       0.00000000e+00 
       0.00000000e+00       0.00000000e+00       0.00000000e+00 
       0.00000000e+00       0.00000000e+00       0.00000000e+00 
       6.51681269e-04      -1.04937798e-08       2.01599988e-05 
       6.51681269e-04      -1.04937798e-08       2.01599988e-05 
       6.51681269e-04      -1.04937798e-08       2.01599988e-05 
       6.51681269e-04      -1.04937798e-08       2.01599988e-05 
       0.00000000e+00       0.00000000e+00       0.00000000e+00 
       0.00000000e+00       0.00000000e+00       0.00000000e+00 
       0.00000000e+00       0.00000000e+00       0.00000000e+00 
       0.00000000e+00       0.00000000e+00       0.00000000e+00 
       6.51681269e-04      -1.04937798e-08       2.01599988e-05 
       6.51681269e-04      -1.04937798e-08       2.01599988e-05 
       6.51681269e-04      -1.04937798e-08       2.01599988e-05 
       6.51681269e-04      -1.04937798e-08       2.01599988e-05 
       3.25840635e-04      -5.24688992e-09       1.00799994e-05 
       3.25840635e-04      -5.24688992e-09       1.00799994e-05 
       3.25840635e-04      -5.24688992e-09       1.00799994e-05 
       3.25840635e-04      -5.24688992e-09       1.00799994e-05 
       0.00000000e+00       0.00000000e+00       0.00000000e+00 
       0.00000000e+00       0.00000000e+00       0.00000000e+00 
       0.00000000e+00       0.00000000e+00       0.00000000e+00 
       0.00000000e+00       0.00000000e+00       0.00000000e+00 
       6.36454062e-04       1.20979140e-06      -4.63051381e-05 
       6.36454062e-04       1.20979140e-06      -4.63051381e-05 
       6.36454062e-04       1.20979140e-06      -4.63051381e-05 
       6.36454062e-04       1.20979140e-06      -4.63051381e-05 
       0.00000000e+00       0.00000000e+00       0.00000000e+00 
       0.00000000e+00       0.00000000e+00       0.00000000e+00 
       0.00000000e+00       0.00000000e+00       0.00000000e+00 
       0.00000000e+00       0.00000000e+00       0.00000000e+00 
       6.36454062e-04       1.20979140e-06      -4.63051381e-05 
       6.36454062e-04       1.20979140e-06      -4.63051381e-05 
       6.36454062e-04       1.20979140e-06      -4.63051381e-05 
       6.36454062e-04       1.20979140e-06      -4.63051381e-05 
       3.18227031e-04       6.04895700e-07      -2.31525690e-05 
       3.18227031e-04       6.04895700e-07      -2.31525690e-05 
       3.18227031e-04       6.04895700e-07      -2.31525690e-05 
       3.18227031e-04       6.04895700e-07      -2.31525690e-05 
       0.00000000e+00       0.00000000e+00       0.00000000e+00 
       0.00000000e+00       0.00000000e+00       0.00000000e+00 
       0.00000000e+00       0.00000000e+00       0.00000000e+00 
       0.00000000e+00       0.00000000e+00       0.00000000e+00 
       8.19942573e-04       1.84935306e-05       9.69868732e-04 
       8.19942573e-04       1.84935306e-05       9.69868732e-04 
       8.19942573e-04       1.84935306e-05       9.69868732e-04 
       8.19942573e-04       1.84935306e-05       9.69868732e-04 
       0.00000000e+00       0.00000000e+00       0.00000000e+00 
       0.00000000e+00       0.00000000e+00       0.00000000e+00 
       0.00000000e+00       0.00000000e+00       0.00000000e+00 
       0.00000000e+00       0.00000000e+00       0.00000000e+00 
       8.19942573e-04       1.84935306e-05       9.69868732e-04 
       8.19942573e-04       1.84935306e-05       9.69868732e-04 
       8.19942573e-04       1.84935306e-05       9.69868732e-04 
       8.19942573e-04       1.84935306e-05       9.69868732e-04 
       4.09971286e-04       9.24676528e-06       4.84934366e-04 
       4.09971286e-04       9.24676528e-06       4.84934366e-04 
       4.09971286e-04       9.24676528e-06       4.84934366e-04 
       4.09971286e-04       9.24676528e-06       4.84934366e-04 
       0.00000000e+00       0.00000000e+00       0.00000000e+00 
       0.00000000e+00       0.00000000e+00       0.00000000e+00 
       0.00000000e+00       0.00000000e+00       0.00000000e+00 
       0.00000000e+00       0.00000000e+00       0.00000000e+00 
       8.42125828e-04      -3.87587577e-05      -1.32116250e-03 
       8.42125828e-04      -3.87587577e-05      -1.32116250e-03 
       8.42125828e-04      -3.87587577e-05      -1.32116250e-03 
       8.42125828e-04      -3.87587577e-05      -1.32116250e-03 
       0.00000000e+00       0.00000000e+00       0.00000000e+00 
       0.00000000e+00       0.00000000e+00       0.00000000e+00 
       0.00000000e+00       0.00000000e+00       0.00000000e+00 
       0.00000000e+00       0.00000000e+00       0.00000000e+00 
       8.42125828e-04      -3.87587577e-05      -1.32116250e-03 
       8.42125828e-04      -3.87587577e-05      -1.32116250e-03 
       8.42125828e-04      -3.87587577e-05      -1.32116250e-03 
       8.42125828e-04      -3.87587577e-05      -1.32116250e-03 
       4.21062914e-04      -1.93793789e-05      -6.60581248e-04 
       4.21062914e-04      -1.93793789e-05      -6.60581248e-04 
       4.21062914e-04      -1.93793789e-05      -6.60581248e-04 
       4.21062914e-04      -1.93793789e-05      -6.60581248e-04 
       0.00000000e+00       0.00000000e+00       0.00000000e+00 
       0.00000000e+00       0.00000000e+00       0.00000000e+00 
       0.00000000e+00       0.00000000e+00       0.00000000e+00 
       0.00000000e+00       0.00000000e+00       0.00000000e+00 
       8.42127477e-04       3.87309367e-05      -1.32118936e-03 
       8.42127477e-04       3.87309367e-05      -1.32118936e-03 
       8.42127477e-04       3.87309367e-05      -1.32118936e-03 
       8.42127477e-04       3.87309367e-05      -1.32118936e-03 
       0.00000000e+00       0.00000000e+00       0.00000000e+00 
       0.00000000e+00       0.00000000e+00       0.00000000e+00 
       0.00000000e+00       0.00000000e+00       0.00000000e+00 
       0.00000000e+00       0.00000000e+00       0.00000000e+00 
       8.42127477e-04       3.87309367e-05      -1.32118936e-03 
       8.42127477e-04       3.87309367e-05      -1.32118936e-03 
       8.42127477e-04       3.87309367e-05      -1.32118936e-03 
       8.42127477e-04       3.87309367e-05      -1.32118936e-03 
       4.21063738e-04       1.93654684e-05      -6.60594679e-04 
       4.21063738e-04       1.93654684e-05      -6.60594679e-04 
       4.21063738e-04       1.93654684e-05      -6.60594679e-04 
       4.21063738e-04       1.93654684e-05      -6.60594679e-04 
       0.00000000e+00       0.00000000e+00       0.00000000e+00 
       0.00000000e+00       0.00000000e+00       0.00000000e+00 
       0.00000000e+00       0.00000000e+00       0.00000000e+00 
       0.00000000e+00       0.00000000e+00       0.00000000e+00 
       8.19941776e-04      -1.85201984e-05       9.69841962e-04 
       8.19941776e-04      -1.85201984e-05       9.69841962e-04 
       8.19941776e-04      -1.85201984e-05       9.69841962e-04 
       8.19941776e-04      -1.85201984e-05       9.69841962e-04 
       0.00000000e+00       0.00000000e+00       0.00000000e+00 
       0.00000000e+00       0.00000000e+00       0.00000000e+00 
       0.00000000e+00       0.00000000e+00       0.00000000e+00 
       0.00000000e+00       0.00000000e+00       0.00000000e+00 
       8.19941776e-04      -1.85201984e-05       9.69841962e-04 
       8.19941776e-04      -1.85201984e-05       9.69841962e-04 
       8.19941776e-04      -1.85201984e-05       9.69841962e-04 
       8.19941776e-04      -1.85201984e-05       9.69841962e-04 
       4.09970888e-04      -9.26009918e-06       4.84920981e-04 
       4.09970888e-04      -9.26009918e-06       4.84920981e-04 
       4.09970888e-04      -9.26009918e-06       4.84920981e-04 
       4.09970888e-04      -9.26009918e-06       4.84920981e-04 
       6.54103900e-04      -1.00822923e-08      -1.12616652e-04 
       6.54103900e-04      -1.00822923e-08      -1.12616652e-04 
       6.54103900e-04      -1.00822923e-08      -1.12616652e-04 
       6.54103900e-04      -1.00822923e-08      -1.12616652e-04 
       8.19941776e-04      -1.85201984e-05       9.69841962e-04 
       8.19941776e-04      -1.85201984e-05       9.69841962e-04 
       8.19941776e-04      -1.85201984e-05       9.69841962e-04 
       8.19941776e-04      -1.85201984e-05       9.69841962e-04 
       6.54103900e-04      -1.00822923e-08      -1.12616652e-04 
       6.54103900e-04      -1.00822923e-08      -1.12616652e-04 
       6.54103900e-04      -1.00822923e-08      -1.12616652e-04 
       6.54103900e-04      -1.00822923e-08      -1.12616652e-04 
       8.19941776e-04      -1.85201984e-05       9.69841962e-04 
       8.19941776e-04      -1.85201984e-05       9.69841962e-04 
       8.19941776e-04      -1.85201984e-05       9.69841962e-04 
       8.19941776e-04      -1.85201984e-05       9.69841962e-04 
       7.37022838e-04      -9.26514033e-06       4.28612655e-04 
       7.37022838e-04      -9.26514033e-06       4.28612655e-04 
       7.37022838e-04      -9.26514033e-06       4.28612655e-04 
       7.37022838e-04      -9.26514033e-06       4.28612655e-04 
       6.54103900e-04      -1.00822923e-08      -1.12616652e-04 
       6.54103900e-04      -1.00822923e-08      -1.12616652e-04 
       6.54103900e-04      -1.00822923e-08      -1.12616652e-04 
       6.54103900e-04      -1.00822923e-08      -1.12616652e-04 
       8.19942573e-04       1.84935306e-05       9.69868732e-04 
       8.19942573e-04       1.84935306e-05       9.69868732e-04 
       8.19942573e-04       1.84935306e-05       9.69868732e-04 
       8.19942573e-04       1.84935306e-05       9.69868732e-04 
       6.54103900e-04      -1.00822923e-08      -1.12616652e-04 
       6.54103900e-04      -1.00822923e-08      -1.12616652e-04 
       6.54103900e-04      -1.00822923e-08      -1.12616652e-04 
       6.54103900e-04      -1.00822923e-08      -1.12616652e-04 
       8.19942573e-04       1.84935306e-05       9.69868732e-04 
       8.19942573e-04       1.84935306e-05       9.69868732e-04 
       8.19942573e-04       1.84935306e-05       9.69868732e-04 
       8.19942573e-04       1.84935306e-05       9.69868732e-04 
       7.37023236e-04       9.24172413e-06       4.28626040e-04 
       7.37023236e-04       9.24172413e-06       4.28626040e-04 
       7.37023236e-04       9.24172413e-06       4.28626040e-04 
       7.37023236e-04       9.24172413e-06       4.28626040e-04 
       6.51681269e-04      -1.04937798e-08       2.01599988e-05 
       6.51681269e-04      -1.04937798e-08       2.01599988e-05 
       6.51681269e-04      -1.04937798e-08       2.01599988e-05 
       6.51681269e-04      -1.04937798e-08       2.01599988e-05 
       8.42127477e-04       3.87309367e-05      -1.32118936e-03 
       8.42127477e-04       3.87309367e-05      -1.32118936e-03 
       8.42127477e-04       3.87309367e-05      -1.32118936e-03 
       8.42127477e-04       3.87309367e-05      -1.32118936e-03 
       6.51681269e-04      -1.04937798e-08       2.01599988e-05 
       6.51681269e-04      -1.04937798e-08       2.01599988e-05 
       6.51681269e-04      -1.04937798e-08       2.01599988e-05 
       6.51681269e-04      -1.04937798e-08       2.01599988e-05 
       8.42127477e-04       3.87309367e-05      -1.32118936e-03 
       8.42127477e-04       3.87309367e-05      -1.32118936e-03 
       8.42127477e-04       3.87309367e-05      -1.32118936e-03 
       8.42127477e-04       3.87309367e-05      -1.32118936e-03 
       7.46904373e-04       1.93602215e-05      -6.50514679e-04 
       7.46904373e-04       1.93602215e-05      -6.50514679e-04 
       7.46904373e-04       1.93602215e-05      -6.50514679e-04 
       7.46904373e-04       1.93602215e-05      -6.50514679e-04 
       6.51681269e-04      -1.04937798e-08       2.01599988e-05 
       6.51681269e-04      -1.04937798e-08       2.01599988e-05 
       6.51681269e-04      -1.04937798e-08       2.01599988e-05 
       6.51681269e-04      -1.04937798e-08       2.01599988e-05 
       6.36454062e-04       1.20979140e-06      -4.63051381e-05 
       6.36454062e-04       1.20979140e-06      -4.63051381e-05 