# vtk DataFile Version 2.0
./output/TransmissionLine_Selfweight/TransmissionLine_Selfweight_0001.vtk
ASCII
DATASET UNSTRUCTURED_GRID

POINTS 3680 float
      -3.535534e-02      -3.535534e-02       5.000000e+00 
      -3.535534e-02       3.535534e-02       5.000000e+00 
       3.535534e-02       3.535534e-02       5.000000e+00 
       3.535534e-02      -3.535534e-02       5.000000e+00 
      -3.535534e-02      -3.535534e-02       2.499658e+00 
      -3.535534e-02       3.535534e-02       2.499658e+00 
       3.535534e-02       3.535534e-02       2.499658e+00 
       3.535534e-02      -3.535534e-02       2.499658e+00 
      -5.000000e-02       0.000000e+00       5.000000e+00 
       0.000000e+00       5.000000e-02       5.000000e+00 
       5.000000e-02       0.000000e+00       5.000000e+00 
       0.000000e+00      -5.000000e-02       5.000000e+00 
      -5.000000e-02       0.000000e+00       2.499658e+00 
       0.000000e+00       5.000000e-02       2.499658e+00 
       5.000000e-02       0.000000e+00       2.499658e+00 
       0.000000e+00      -5.000000e-02       2.499658e+00 
      -3.535534e-02      -3.535534e-02       3.749829e+00 
      -3.535534e-02       3.535534e-02       3.749829e+00 
       3.535534e-02       3.535534e-02       3.749829e+00 
       3.535534e-02      -3.535534e-02       3.749829e+00 
      -3.535534e-02      -3.535534e-02       2.499658e+00 
      -3.535534e-02       3.535534e-02       2.499658e+00 
       3.535534e-02       3.535534e-02       2.499658e+00 
       3.535534e-02      -3.535534e-02       2.499658e+00 
      -3.535534e-02      -3.535534e-02      -6.819631e-04 
      -3.535534e-02       3.535534e-02      -6.819631e-04 
       3.535534e-02       3.535534e-02      -6.819631e-04 
       3.535534e-02      -3.535534e-02      -6.819631e-04 
      -5.000000e-02       0.000000e+00       2.499658e+00 
       0.000000e+00       5.000000e-02       2.499658e+00 
       5.000000e-02       0.000000e+00       2.499658e+00 
       0.000000e+00      -5.000000e-02       2.499658e+00 
      -5.000000e-02       0.000000e+00      -6.819631e-04 
       0.000000e+00       5.000000e-02      -6.819631e-04 
       5.000000e-02       0.000000e+00      -6.819631e-04 
       0.000000e+00      -5.000000e-02      -6.819631e-04 
      -3.535534e-02      -3.535534e-02       1.249488e+00 
      -3.535534e-02       3.535534e-02       1.249488e+00 
       3.535534e-02       3.535534e-02       1.249488e+00 
       3.535534e-02      -3.535534e-02       1.249488e+00 
       2.110610e-03      -3.535534e-02      -3.597425e-02 
       2.110610e-03       3.535534e-02      -3.597425e-02 
      -2.110610e-03       3.535534e-02       3.461032e-02 
      -2.110610e-03      -3.535534e-02       3.461032e-02 
       2.266551e+00      -3.535534e-02      -7.990091e-02 
       2.266551e+00       3.535534e-02      -7.990091e-02 
       2.264949e+00       3.535534e-02      -9.208373e-03 
       2.264949e+00      -3.535534e-02      -9.208373e-03 
       2.984854e-03       0.000000e+00      -5.059279e-02 
       0.000000e+00       5.000000e-02      -6.819631e-04 
      -2.984854e-03       0.000000e+00       4.922886e-02 
       0.000000e+00      -5.000000e-02      -6.819631e-04 
       2.266883e+00       0.000000e+00      -9.454181e-02 
       2.265750e+00       5.000000e-02      -4.455464e-02 
       2.264618e+00       0.000000e+00       5.432530e-03 
       2.265750e+00      -5.000000e-02      -4.455464e-02 
       1.134331e+00      -3.535534e-02      -5.794365e-02 
       1.134331e+00       3.535534e-02      -5.794365e-02 
       1.131419e+00       3.535534e-02       1.270704e-02 
       1.131419e+00      -3.535534e-02       1.270704e-02 
       2.265383e+00      -3.535534e-02      -7.990807e-02 
       2.265383e+00       3.535534e-02      -7.990807e-02 
       2.266118e+00       3.535534e-02      -9.201215e-03 
       2.266118e+00      -3.535534e-02      -9.201215e-03 
       4.524178e+00      -3.535534e-02      -1.984474e-01 
       4.524178e+00       3.535534e-02      -1.984474e-01 
       4.526983e+00       3.535534e-02      -1.277924e-01 
       4.526983e+00      -3.535534e-02      -1.277924e-01 
       2.265230e+00       0.000000e+00      -9.455193e-02 
       2.265750e+00       5.000000e-02      -4.455464e-02 
       2.266271e+00       0.000000e+00       5.442654e-03 
       2.265750e+00      -5.000000e-02      -4.455464e-02 
       4.523597e+00       0.000000e+00      -2.130805e-01 
       4.525581e+00       5.000000e-02      -1.631199e-01 
       4.527564e+00       0.000000e+00      -1.131593e-01 
       4.525581e+00      -5.000000e-02      -1.631199e-01 
       3.394780e+00      -3.535534e-02      -1.391815e-01 
       3.394780e+00       3.535534e-02      -1.391815e-01 
       3.396551e+00       3.535534e-02      -6.849301e-02 
       3.396551e+00      -3.535534e-02      -6.849301e-02 
       4.523284e+00      -3.535534e-02      -1.984006e-01 
       4.523284e+00       3.535534e-02      -1.984006e-01 
       4.527877e+00       3.535534e-02      -1.278392e-01 
       4.527877e+00      -3.535534e-02      -1.278392e-01 
       6.777829e+00      -3.535534e-02      -3.740392e-01 
       6.777829e+00       3.535534e-02      -3.740392e-01 
       6.783937e+00       3.535534e-02      -3.035928e-01 
       6.783937e+00      -3.535534e-02      -3.035928e-01 
       4.522333e+00       0.000000e+00      -2.130143e-01 
       4.525581e+00       5.000000e-02      -1.631199e-01 
       4.528829e+00       0.000000e+00      -1.132255e-01 
       4.525581e+00      -5.000000e-02      -1.631199e-01 
       6.776564e+00       0.000000e+00      -3.886291e-01 
       6.780883e+00       5.000000e-02      -3.388160e-01 
       6.785202e+00       0.000000e+00      -2.890029e-01 
       6.780883e+00      -5.000000e-02      -3.388160e-01 
       5.650556e+00      -3.535534e-02      -2.862219e-01 
       5.650556e+00       3.535534e-02      -2.862219e-01 
       5.655907e+00       3.535534e-02      -2.157140e-01 
       5.655907e+00      -3.535534e-02      -2.157140e-01 
       6.777211e+00      -3.535534e-02      -3.739802e-01 
       6.777211e+00       3.535534e-02      -3.739802e-01 
       6.784554e+00       3.535534e-02      -3.036518e-01 
       6.784554e+00      -3.535534e-02      -3.036518e-01 
       9.028897e+00      -3.535534e-02      -5.891920e-01 
       9.028897e+00       3.535534e-02      -5.891920e-01 
       9.037201e+00       3.535534e-02      -5.189706e-01 
       9.037201e+00      -3.535534e-02      -5.189706e-01 
       6.775691e+00       0.000000e+00      -3.885457e-01 
       6.780883e+00       5.000000e-02      -3.388160e-01 
       6.786075e+00       0.000000e+00      -2.890863e-01 
       6.780883e+00      -5.000000e-02      -3.388160e-01 
       9.027177e+00       0.000000e+00      -6.037353e-01 
       9.033049e+00       5.000000e-02      -5.540813e-01 
       9.038921e+00       0.000000e+00      -5.044273e-01 
       9.033049e+00      -5.000000e-02      -5.540813e-01 
       7.903054e+00      -3.535534e-02      -4.815869e-01 
       7.903054e+00       3.535534e-02      -4.815869e-01 
       7.910878e+00       3.535534e-02      -4.113104e-01 
       7.910878e+00      -3.535534e-02      -4.113104e-01 
       9.028555e+00      -3.535534e-02      -5.891499e-01 
       9.028555e+00       3.535534e-02      -5.891499e-01 
       9.037543e+00       3.535534e-02      -5.190128e-01 
       9.037543e+00      -3.535534e-02      -5.190128e-01 
       1.127877e+01      -3.535534e-02      -8.263956e-01 
       1.127877e+01       3.535534e-02      -8.263956e-01 
       1.128817e+01       3.535534e-02      -7.563126e-01 
       1.128817e+01      -3.535534e-02      -7.563126e-01 
       9.026693e+00       0.000000e+00      -6.036757e-01 
       9.033049e+00       5.000000e-02      -5.540813e-01 
       9.039405e+00       0.000000e+00      -5.044869e-01 
       9.033049e+00      -5.000000e-02      -5.540813e-01 
       1.127682e+01       0.000000e+00      -8.409103e-01 
       1.128347e+01       5.000000e-02      -7.913541e-01 
       1.129012e+01       0.000000e+00      -7.417979e-01 
       1.128347e+01      -5.000000e-02      -7.913541e-01 
       1.015366e+01      -3.535534e-02      -7.077729e-01 
       1.015366e+01       3.535534e-02      -7.077729e-01 
       1.016286e+01       3.535534e-02      -6.376625e-01 
       1.016286e+01      -3.535534e-02      -6.376625e-01 
       1.127870e+01      -3.535534e-02      -8.263863e-01 
       1.127870e+01       3.535534e-02      -8.263863e-01 
       1.128824e+01       3.535534e-02      -7.563219e-01 
       1.128824e+01      -3.535534e-02      -7.563219e-01 
       1.352884e+01      -3.535534e-02      -1.068114e+00 
       1.352884e+01       3.535534e-02      -1.068114e+00 
       1.353824e+01       3.535534e-02      -9.980313e-01 
       1.353824e+01      -3.535534e-02      -9.980313e-01 
       1.127673e+01       0.000000e+00      -8.408971e-01 
       1.128347e+01       5.000000e-02      -7.913541e-01 
       1.129022e+01       0.000000e+00      -7.418111e-01 
       1.128347e+01      -5.000000e-02      -7.913541e-01 
       1.352689e+01       0.000000e+00      -1.082629e+00 
       1.353354e+01       5.000000e-02      -1.033073e+00 
       1.354019e+01       0.000000e+00      -9.835167e-01 
       1.353354e+01      -5.000000e-02      -1.033073e+00 
       1.240377e+01      -3.535534e-02      -9.472501e-01 
       1.240377e+01       3.535534e-02      -9.472501e-01 
       1.241324e+01       3.535534e-02      -8.771766e-01 
       1.241324e+01      -3.535534e-02      -8.771766e-01 
       1.352904e+01      -3.535534e-02      -1.068141e+00 
       1.352904e+01       3.535534e-02      -1.068141e+00 
       1.353804e+01       3.535534e-02      -9.980046e-01 
       1.353804e+01      -3.535534e-02      -9.980046e-01 
       1.578049e+01      -3.535534e-02      -1.296785e+00 
       1.578049e+01       3.535534e-02      -1.296785e+00 
[...]
POINT_DATA      3680 
VECTORS Displacements float
       0.00000000e+00       0.00000000e+00       0.00000000e+00 
       0.00000000e+00       0.00000000e+00       0.00000000e+00 
       0.00000000e+00       0.00000000e+00       0.00000000e+00 
       0.00000000e+00       0.00000000e+00       0.00000000e+00 
       0.00000000e+00       0.00000000e+00      -3.42069632e-04 
       0.00000000e+00       0.00000000e+00      -3.42069632e-04 
       0.00000000e+00       0.00000000e+00      -3.42069632e-04 
       0.00000000e+00       0.00000000e+00      -3.42069632e-04 
       0.00000000e+00       0.00000000e+00       0.00000000e+00 
       0.00000000e+00       0.00000000e+00       0.00000000e+00 
       0.00000000e+00       0.00000000e+00       0.00000000e+00 
       0.00000000e+00       0.00000000e+00       0.00000000e+00 
       0.00000000e+00       0.00000000e+00      -3.42069632e-04 
       0.00000000e+00       0.00000000e+00      -3.42069632e-04 
       0.00000000e+00       0.00000000e+00      -3.42069632e-04 
       0.00000000e+00       0.00000000e+00      -3.42069632e-04 
       0.00000000e+00       0.00000000e+00      -1.71034816e-04 
       0.00000000e+00       0.00000000e+00      -1.71034816e-04 
       0.00000000e+00       0.00000000e+00      -1.71034816e-04 
       0.00000000e+00       0.00000000e+00      -1.71034816e-04 
       0.00000000e+00       0.00000000e+00      -3.42069632e-04 
       0.00000000e+00       0.00000000e+00      -3.42069632e-04 
       0.00000000e+00       0.00000000e+00      -3.42069632e-04 
       0.00000000e+00       0.00000000e+00      -3.42069632e-04 
       0.00000000e+00       0.00000000e+00      -6.81963055e-04 
       0.00000000e+00       0.00000000e+00      -6.81963055e-04 
       0.00000000e+00       0.00000000e+00      -6.81963055e-04 
       0.00000000e+00       0.00000000e+00      -6.81963055e-04 
       0.00000000e+00       0.00000000e+00      -3.42069632e-04 
       0.00000000e+00       0.00000000e+00      -3.42069632e-04 
       0.00000000e+00       0.00000000e+00      -3.42069632e-04 
       0.00000000e+00       0.00000000e+00      -3.42069632e-04 
       0.00000000e+00       0.00000000e+00      -6.81963055e-04 
       0.00000000e+00       0.00000000e+00      -6.81963055e-04 
       0.00000000e+00       0.00000000e+00      -6.81963055e-04 
       0.00000000e+00       0.00000000e+00      -6.81963055e-04 
       0.00000000e+00       0.00000000e+00      -5.12016344e-04 
       0.00000000e+00       0.00000000e+00      -5.12016344e-04 
       0.00000000e+00       0.00000000e+00      -5.12016344e-04 
       0.00000000e+00       0.00000000e+00      -5.12016344e-04 
       0.00000000e+00       0.00000000e+00      -6.81963055e-04 
       0.00000000e+00       0.00000000e+00      -6.81963055e-04 
       0.00000000e+00       0.00000000e+00      -6.81963055e-04 
       0.00000000e+00       0.00000000e+00      -6.81963055e-04 
       7.41704086e-03       0.00000000e+00      -4.45546405e-02 
       7.41704086e-03       0.00000000e+00      -4.45546405e-02 
       7.41704086e-03       0.00000000e+00      -4.45546405e-02 
       7.41704086e-03       0.00000000e+00      -4.45546405e-02 
       0.00000000e+00       0.00000000e+00      -6.81963055e-04 
       0.00000000e+00       0.00000000e+00      -6.81963055e-04 
       0.00000000e+00       0.00000000e+00      -6.81963055e-04 
       0.00000000e+00       0.00000000e+00      -6.81963055e-04 
       7.41704086e-03       0.00000000e+00      -4.45546405e-02 
       7.41704086e-03       0.00000000e+00      -4.45546405e-02 
       7.41704086e-03       0.00000000e+00      -4.45546405e-02 
       7.41704086e-03       0.00000000e+00      -4.45546405e-02 
       3.70852043e-03       0.00000000e+00      -2.26183018e-02 
       3.70852043e-03       0.00000000e+00      -2.26183018e-02 
       3.70852043e-03       0.00000000e+00      -2.26183018e-02 
       3.70852043e-03       0.00000000e+00      -2.26183018e-02 
       7.41704086e-03       0.00000000e+00      -4.45546405e-02 
       7.41704086e-03       0.00000000e+00      -4.45546405e-02 
       7.41704086e-03       0.00000000e+00      -4.45546405e-02 
       7.41704086e-03       0.00000000e+00      -4.45546405e-02 
       8.91402765e-03       0.00000000e+00      -1.63119894e-01 
       8.91402765e-03       0.00000000e+00      -1.63119894e-01 
       8.91402765e-03       0.00000000e+00      -1.63119894e-01 
       8.91402765e-03       0.00000000e+00      -1.63119894e-01 
       7.41704086e-03       0.00000000e+00      -4.45546405e-02 
       7.41704086e-03       0.00000000e+00      -4.45546405e-02 
       7.41704086e-03       0.00000000e+00      -4.45546405e-02 
       7.41704086e-03       0.00000000e+00      -4.45546405e-02 
       8.91402765e-03       0.00000000e+00      -1.63119894e-01 
       8.91402765e-03       0.00000000e+00      -1.63119894e-01 
       8.91402765e-03       0.00000000e+00      -1.63119894e-01 
       8.91402765e-03       0.00000000e+00      -1.63119894e-01 
       8.16553426e-03       0.00000000e+00      -1.03837267e-01 
       8.16553426e-03       0.00000000e+00      -1.03837267e-01 
       8.16553426e-03       0.00000000e+00      -1.03837267e-01 
       8.16553426e-03       0.00000000e+00      -1.03837267e-01 
       8.91402765e-03       0.00000000e+00      -1.63119894e-01 
       8.91402765e-03       0.00000000e+00      -1.63119894e-01 
       8.91402765e-03       0.00000000e+00      -1.63119894e-01 
       8.91402765e-03       0.00000000e+00      -1.63119894e-01 
       5.88288212e-03       0.00000000e+00      -3.38816021e-01 
       5.88288212e-03       0.00000000e+00      -3.38816021e-01 
       5.88288212e-03       0.00000000e+00      -3.38816021e-01 
       5.88288212e-03       0.00000000e+00      -3.38816021e-01 
       8.91402765e-03       0.00000000e+00      -1.63119894e-01 
       8.91402765e-03       0.00000000e+00      -1.63119894e-01 
       8.91402765e-03       0.00000000e+00      -1.63119894e-01 
       8.91402765e-03       0.00000000e+00      -1.63119894e-01 
       5.88288212e-03       0.00000000e+00      -3.38816021e-01 
       5.88288212e-03       0.00000000e+00      -3.38816021e-01 
       5.88288212e-03       0.00000000e+00      -3.38816021e-01 
       5.88288212e-03       0.00000000e+00      -3.38816021e-01 
       7.39845489e-03       0.00000000e+00      -2.50967958e-01 
       7.39845489e-03       0.00000000e+00      -2.50967958e-01 
       7.39845489e-03       0.00000000e+00      -2.50967958e-01 
       7.39845489e-03       0.00000000e+00      -2.50967958e-01 
       5.88288212e-03       0.00000000e+00      -3.38816021e-01 
       5.88288212e-03       0.00000000e+00      -3.38816021e-01 
       5.88288212e-03       0.00000000e+00      -3.38816021e-01 
       5.88288212e-03       0.00000000e+00      -3.38816021e-01 
      -2.84473976e-04       0.00000000e+00      -5.54081322e-01 
      -2.84473976e-04       0.00000000e+00      -5.54081322e-01 
      -2.84473976e-04       0.00000000e+00      -5.54081322e-01 
      -2.84473976e-04       0.00000000e+00      -5.54081322e-01 
       5.88288212e-03       0.00000000e+00      -3.38816021e-01 
       5.88288212e-03       0.00000000e+00      -3.38816021e-01 
       5.88288212e-03       0.00000000e+00      -3.38816021e-01 
       5.88288212e-03       0.00000000e+00      -3.38816021e-01 
      -2.84473976e-04       0.00000000e+00      -5.54081322e-01 
      -2.84473976e-04       0.00000000e+00      -5.54081322e-01 
      -2.84473976e-04       0.00000000e+00      -5.54081322e-01 
      -2.84473976e-04       0.00000000e+00      -5.54081322e-01 
       2.79920407e-03       0.00000000e+00      -4.46448672e-01 
       2.79920407e-03       0.00000000e+00      -4.46448672e-01 
       2.79920407e-03       0.00000000e+00      -4.46448672e-01 
       2.79920407e-03       0.00000000e+00      -4.46448672e-01 
      -2.84473976e-04       0.00000000e+00      -5.54081322e-01 
      -2.84473976e-04       0.00000000e+00      -5.54081322e-01 
      -2.84473976e-04       0.00000000e+00      -5.54081322e-01 
      -2.84473976e-04       0.00000000e+00      -5.54081322e-01 
      -8.19611889e-03       0.00000000e+00      -7.91354096e-01 
      -8.19611889e-03       0.00000000e+00      -7.91354096e-01 
      -8.19611889e-03       0.00000000e+00      -7.91354096e-01 
      -8.19611889e-03       0.00000000e+00      -7.91354096e-01 
      -2.84473976e-04       0.00000000e+00      -5.54081322e-01 
      -2.84473976e-04       0.00000000e+00      -5.54081322e-01 
      -2.84473976e-04       0.00000000e+00      -5.54081322e-01 
      -2.84473976e-04       0.00000000e+00      -5.54081322e-01 
      -8.19611889e-03       0.00000000e+00      -7.91354096e-01 
      -8.19611889e-03       0.00000000e+00      -7.91354096e-01 
      -8.19611889e-03       0.00000000e+00      -7.91354096e-01 
      -8.19611889e-03       0.00000000e+00      -7.91354096e-01 
      -4.24029643e-03       0.00000000e+00      -6.72717709e-01 
      -4.24029643e-03       0.00000000e+00      -6.72717709e-01 
      -4.24029643e-03       0.00000000e+00      -6.72717709e-01 
      -4.24029643e-03       0.00000000e+00      -6.72717709e-01 
      -8.19611889e-03       0.00000000e+00      -7.91354096e-01 
      -8.19611889e-03       0.00000000e+00      -7.91354096e-01 
      -8.19611889e-03       0.00000000e+00      -7.91354096e-01 
      -8.19611889e-03       0.00000000e+00      -7.91354096e-01 
      -1.64601309e-02       0.00000000e+00      -1.03307264e+00 
      -1.64601309e-02       0.00000000e+00      -1.03307264e+00 
      -1.64601309e-02       0.00000000e+00      -1.03307264e+00 
      -1.64601309e-02       0.00000000e+00      -1.03307264e+00 
      -8.19611889e-03       0.00000000e+00      -7.91354096e-01 
      -8.19611889e-03       0.00000000e+00      -7.91354096e-01 
      -8.19611889e-03       0.00000000e+00      -7.91354096e-01 
      -8.19611889e-03       0.00000000e+00      -7.91354096e-01 
      -1.64601309e-02       0.00000000e+00      -1.03307264e+00 
      -1.64601309e-02       0.00000000e+00      -1.03307264e+00 
      -1.64601309e-02       0.00000000e+00      -1.03307264e+00 
      -1.64601309e-02       0.00000000e+00      -1.03307264e+00 
      -1.23281249e-02       0.00000000e+00      -9.12213367e-01 
      -1.23281249e-02       0.00000000e+00      -9.12213367e-01 
      -1.23281249e-02       0.00000000e+00      -9.12213367e-01 
      -1.23281249e-02       0.00000000e+00      -9.12213367e-01 
      -1.64601309e-02       0.00000000e+00      -1.03307264e+00 
      -1.64601309e-02       0.00000000e+00      -1.03307264e+00 
      -1.64601309e-02       0.00000000e+00      -1.03307264e+00 
      -1.64601309e-02       0.00000000e+00      -1.03307264e+00 
      -2.36845882e-02       0.00000000e+00      -1.26167525e+00 
      -2.36845882e-02       0.00000000e+00      -1.26167525e+00 
      -2.36845882e-02       0.00000000e+00      -1.26167525e+00 
      -2.36845882e-02       0.00000000e+00      -1.26167525e+00 
      -1.64601309e-02       0.00000000e+00      -1.03307264e+00 
      -1.64601309e-02       0.00000000e+00      -1.03307264e+00 
      -1.64601309e-02       0.00000000e+00      -1.03307264e+00 
      -1.64601309e-02       0.00000000e+00      -1.03307264e+00 
      -2.36845882e-02       0.00000000e+00      -1.26167525e+00 
      -2.36845882e-02       0.00000000e+00      -1.26167525e+00 
      -2.36845882e-02       0.00000000e+00      -1.26167525e+00 
      -2.36845882e-02       0.00000000e+00      -1.26167525e+00 
      -2.00723595e-02       0.00000000e+00      -1.14737395e+00 
      -2.00723595e-02       0.00000000e+00      -1.14737395e+00 
      -2.00723595e-02       0.00000000e+00      -1.14737395e+00 
      -2.00723595e-02       0.00000000e+00      -1.14737395e+00 
      -2.36845882e-02       0.00000000e+00      -1.26167525e+00 
      -2.36845882e-02       0.00000000e+00      -1.26167525e+00 
      -2.36845882e-02       0.00000000e+00      -1.26167525e+00 
      -2.36845882e-02       0.00000000e+00      -1.26167525e+00 
      -2.84775690e-02       0.00000000e+00      -1.45960023e+00 
      -2.84775690e-02       0.00000000e+00      -1.45960023e+00 
      -2.84775690e-02       0.00000000e+00      -1.45960023e+00 
      -2.84775690e-02       0.00000000e+00      -1.45960023e+00 
      -2.36845882e-02       0.00000000e+00      -1.26167525e+00 
      -2.36845882e-02       0.00000000e+00      -1.26167525e+00 
      -2.36845882e-02       0.00000000e+00      -1.26167525e+00 
      -2.36845882e-02       0.00000000e+00      -1.26167525e+00 
      -2.84775690e-02       0.00000000e+00      -1.45960023e+00 
      -2.84775690e-02       0.00000000e+00      -1.45960023e+00 
      -2.84775690e-02       0.00000000e+00      -1.45960023e+00 
      -2.84775690e-02       0.00000000e+00      -1.45960023e+00 
      -2.60810786e-02       0.00000000e+00      -1.36063774e+00 
      -2.60810786e-02       0.00000000e+00      -1.36063774e+00 
      -2.60810786e-02       0.00000000e+00      -1.36063774e+00 
      -2.60810786e-02       0.00000000e+00      -1.36063774e+00 
      -2.84775690e-02       0.00000000e+00      -1.45960023e+00 
      -2.84775690e-02       0.00000000e+00      -1.45960023e+00 
      -2.84775690e-02       0.00000000e+00      -1.45960023e+00 
      -2.84775690e-02       0.00000000e+00      -1.45960023e+00 
      -2.94471517e-02       0.00000000e+00      -1.60928588e+00 
      -2.94471517e-02       0.00000000e+00      -1.60928588e+00 
      -2.94471517e-02       0.00000000e+00      -1.60928588e+00 
      -2.94471517e-02       0.00000000e+00      -1.60928588e+00 
      -2.84775690e-02       0.00000000e+00      -1.45960023e+00 
      -2.84775690e-02       0.00000000e+00      -1.45960023e+00 
      -2.84775690e-02       0.00000000e+00      -1.45960023e+00 
      -2.84775690e-02       0.00000000e+00      -1.45960023e+00 
      -2.94471517e-02       0.00000000e+00      -1.60928588e+00 
      -2.94471517e-02       0.00000000e+00      -1.60928588e+00 
      -2.94471517e-02       0.00000000e+00      -1.60928588e+00 
      -2.94471517e-02       0.00000000e+00      -1.60928588e+00 
      -2.89623603e-02       0.00000000e+00      -1.53444306e+00 
      -2.89623603e-02       0.00000000e+00      -1.53444306e+00 
      -2.89623603e-02       0.00000000e+00      -1.53444306e+00 
      -2.89623603e-02       0.00000000e+00      -1.53444306e+00 
      -2.94471517e-02       0.00000000e+00      -1.60928588e+00 
      -2.94471517e-02       0.00000000e+00      -1.60928588e+00 
      -2.94471517e-02       0.00000000e+00      -1.60928588e+00 
      -2.94471517e-02       0.00000000e+00      -1.60928588e+00 
      -2.92542190e-02       0.00000000e+00      -1.74072591e+00 
      -2.92542190e-02       0.00000000e+00      -1.74072591e+00 
      -2.92542190e-02       0.00000000e+00      -1.74072591e+00 
      -2.92542190e-02       0.00000000e+00      -1.74072591e+00 
      -2.94471517e-02       0.00000000e+00      -1.60928588e+00 
      -2.94471517e-02       0.00000000e+00      -1.60928588e+00 
      -2.94471517e-02       0.00000000e+00      -1.60928588e+00 
      -2.94471517e-02       0.00000000e+00      -1.60928588e+00 
      -2.92542190e-02       0.00000000e+00      -1.74072591e+00 
      -2.92542190e-02       0.00000000e+00      -1.74072591e+00 
      -2.92542190e-02       0.00000000e+00      -1.74072591e+00 
      -2.92542190e-02       0.00000000e+00      -1.74072591e+00 
      -2.93506853e-02       0.00000000e+00      -1.67500590e+00 
      -2.93506853e-02       0.00000000e+00      -1.67500590e+00 
      -2.93506853e-02       0.00000000e+00      -1.67500590e+00 
      -2.93506853e-02       0.00000000e+00      -1.67500590e+00 
      -2.92542190e-02       0.00000000e+00      -1.74072591e+00 
      -2.92542190e-02       0.00000000e+00      -1.74072591e+00 
      -2.92542190e-02       0.00000000e+00      -1.74072591e+00 
      -2.92542190e-02       0.00000000e+00      -1.74072591e+00 
      -3.05092493e-02       0.00000000e+00      -1.89223547e+00 
      -3.05092493e-02       0.00000000e+00      -1.89223547e+00 
      -3.05092493e-02       0.00000000e+00      -1.89223547e+00 
      -3.05092493e-02       0.00000000e+00      -1.89223547e+00 
      -2.92542190e-02       0.00000000e+00      -1.74072591e+00 
      -2.92542190e-02       0.00000000e+00      -1.74072591e+00 
      -2.92542190e-02       0.00000000e+00      -1.74072591e+00 
      -2.92542190e-02       0.00000000e+00      -1.74072591e+00 
      -3.05092493e-02       0.00000000e+00      -1.89223547e+00 
      -3.05092493e-02       0.00000000e+00      -1.89223547e+00 
      -3.05092493e-02       0.00000000e+00      -1.89223547e+00 
      -3.05092493e-02       0.00000000e+00      -1.89223547e+00 
      -2.98817341e-02       0.00000000e+00      -1.81648069e+00 
      -2.98817341e-02       0.00000000e+00      -1.81648069e+00 
      -2.98817341e-02       0.00000000e+00      -1.81648069e+00 
      -2.98817341e-02       0.00000000e+00      -1.81648069e+00 
      -3.05092493e-02       0.00000000e+00      -1.89223547e+00 
      -3.05092493e-02       0.00000000e+00      -1.89223547e+00 
      -3.05092493e-02       0.00000000e+00      -1.89223547e+00 
      -3.05092493e-02       0.00000000e+00      -1.89223547e+00 
      -3.28339742e-02       0.00000000e+00      -2.05857155e+00 
      -3.28339742e-02       0.00000000e+00      -2.05857155e+00 
      -3.28339742e-02       0.00000000e+00      -2.05857155e+00 
      -3.28339742e-02       0.00000000e+00      -2.05857155e+00 
      -3.05092493e-02       0.00000000e+00      -1.89223547e+00 
      -3.05092493e-02       0.00000000e+00      -1.89223547e+00 
      -3.05092493e-02       0.00000000e+00      -1.89223547e+00 
      -3.05092493e-02       0.00000000e+00      -1.89223547e+00 
      -3.28339742e-02       0.00000000e+00      -2.05857155e+00 
      -3.28339742e-02       0.00000000e+00      -2.05857155e+00 
      -3.28339742e-02       0.00000000e+00      -2.05857155e+00 
      -3.28339742e-02       0.00000000e+00      -2.05857155e+00 
      -3.16716117e-02       0.00000000e+00      -1.97540351e+00 
      -3.16716117e-02       0.00000000e+00      -1.97540351e+00 
      -3.16716117e-02       0.00000000e+00      -1.97540351e+00 
      -3.16716117e-02       0.00000000e+00      -1.97540351e+00 
      -3.28339742e-02       0.00000000e+00      -2.05857155e+00 
      -3.28339742e-02       0.00000000e+00      -2.05857155e+00 
      -3.28339742e-02       0.00000000e+00      -2.05857155e+00 
      -3.28339742e-02       0.00000000e+00      -2.05857155e+00 
      -3.58501253e-02       0.00000000e+00      -2.23449117e+00 
      -3.58501253e-02       0.00000000e+00      -2.23449117e+00 
      -3.58501253e-02       0.00000000e+00      -2.23449117e+00 
      -3.58501253e-02       0.00000000e+00      -2.23449117e+00 
      -3.28339742e-02       0.00000000e+00      -2.05857155e+00 
      -3.28339742e-02       0.00000000e+00      -2.05857155e+00 
      -3.28339742e-02       0.00000000e+00      -2.05857155e+00 
      -3.28339742e-02       0.00000000e+00      -2.05857155e+00 
      -3.58501253e-02       0.00000000e+00      -2.23449117e+00 
      -3.58501253e-02       0.00000000e+00      -2.23449117e+00 
      -3.58501253e-02       0.00000000e+00      -2.23449117e+00 
      -3.58501253e-02       0.00000000e+00      -2.23449117e+00 
      -3.43420497e-02       0.00000000e+00      -2.14653136e+00 
      -3.43420497e-02       0.00000000e+00      -2.14653136e+00 
      -3.43420497e-02       0.00000000e+00      -2.14653136e+00 
      -3.43420497e-02       0.00000000e+00      -2.14653136e+00 
      -3.58501253e-02       0.00000000e+00      -2.23449117e+00 
      -3.58501253e-02       0.00000000e+00      -2.23449117e+00 
      -3.58501253e-02       0.00000000e+00      -2.23449117e+00 
      -3.58501253e-02       0.00000000e+00      -2.23449117e+00 
      -3.91794342e-02       0.00000000e+00      -2.41475132e+00 
      -3.91794342e-02       0.00000000e+00      -2.41475132e+00 