# vtk DataFile Version 2.0
./output/TransmissionLine_Selfweight/TransmissionLine_Selfweight_0002.vtk
ASCII
DATASET UNSTRUCTURED_GRID

POINTS 3680 float
      -3.535534e-02      -3.535534e-02       5.000000e+00 
      -3.535534e-02       3.535534e-02       5.000000e+00 
       3.535534e-02       3.535534e-02       5.000000e+00 
       3.535534e-02      -3.535534e-02       5.000000e+00 
      -3.535534e-02      -3.535534e-02       2.499871e+00 
      -3.535534e-02       3.535534e-02       2.499871e+00 
       3.535534e-02       3.535534e-02       2.499871e+00 
       3.535534e-02      -3.535534e-02       2.499871e+00 
      -5.000000e-02       0.000000e+00       5.000000e+00 
       0.000000e+00       5.000000e-02       5.000000e+00 
       5.000000e-02       0.000000e+00       5.000000e+00 
       0.000000e+00      -5.000000e-02       5.000000e+00 
      -5.000000e-02       0.000000e+00       2.499871e+00 
       0.000000e+00       5.000000e-02       2.499871e+00 
       5.000000e-02       0.000000e+00       2.499871e+00 
       0.000000e+00      -5.000000e-02       2.499871e+00 
      -3.535534e-02      -3.535534e-02       3.749936e+00 
      -3.535534e-02       3.535534e-02       3.749936e+00 
       3.535534e-02       3.535534e-02       3.749936e+00 
       3.535534e-02      -3.535534e-02       3.749936e+00 
      -3.535534e-02      -3.535534e-02       2.499871e+00 
      -3.535534e-02       3.535534e-02       2.499871e+00 
       3.535534e-02       3.535534e-02       2.499871e+00 
       3.535534e-02      -3.535534e-02       2.499871e+00 
      -3.535534e-02      -3.535534e-02      -2.552930e-04 
      -3.535534e-02       3.535534e-02      -2.552930e-04 
       3.535534e-02       3.535534e-02      -2.552930e-04 
       3.535534e-02      -3.535534e-02      -2.552930e-04 
      -5.000000e-02       0.000000e+00       2.499871e+00 
       0.000000e+00       5.000000e-02       2.499871e+00 
       5.000000e-02       0.000000e+00       2.499871e+00 
       0.000000e+00      -5.000000e-02       2.499871e+00 
      -5.000000e-02       0.000000e+00      -2.552930e-04 
       0.000000e+00       5.000000e-02      -2.552930e-04 
       5.000000e-02       0.000000e+00      -2.552930e-04 
       0.000000e+00      -5.000000e-02      -2.552930e-04 
      -3.535534e-02      -3.535534e-02       1.249808e+00 
      -3.535534e-02       3.535534e-02       1.249808e+00 
       3.535534e-02       3.535534e-02       1.249808e+00 
       3.535534e-02      -3.535534e-02       1.249808e+00 
       1.893097e-03      -3.535534e-02      -3.555991e-02 
       1.893097e-03       3.535534e-02      -3.555991e-02 
      -1.893097e-03       3.535534e-02       3.504933e-02 
      -1.893097e-03      -3.535534e-02       3.504933e-02 
       2.264468e+00      -3.535534e-02      -5.700583e-02 
       2.264468e+00       3.535534e-02      -5.700583e-02 
       2.261985e+00       3.535534e-02       1.366123e-02 
       2.261985e+00      -3.535534e-02       1.366123e-02 
       2.677243e-03       0.000000e+00      -5.018357e-02 
       0.000000e+00       5.000000e-02      -2.552930e-04 
      -2.677243e-03       0.000000e+00       4.967298e-02 
       0.000000e+00      -5.000000e-02      -2.552930e-04 
       2.264983e+00       0.000000e+00      -7.164145e-02 
       2.263227e+00       5.000000e-02      -2.167230e-02 
       2.261471e+00       0.000000e+00       2.829686e-02 
       2.263227e+00      -5.000000e-02      -2.167230e-02 
       1.133181e+00      -3.535534e-02      -4.628437e-02 
       1.133181e+00       3.535534e-02      -4.628437e-02 
       1.130046e+00       3.535534e-02       2.435678e-02 
       1.130046e+00      -3.535534e-02       2.435678e-02 
       2.263850e+00      -3.535534e-02      -5.702215e-02 
       2.263850e+00       3.535534e-02      -5.702215e-02 
       2.262604e+00       3.535534e-02       1.367756e-02 
       2.262604e+00      -3.535534e-02       1.367756e-02 
       4.523990e+00      -3.535534e-02      -1.180149e-01 
       4.523990e+00       3.535534e-02      -1.180149e-01 
       4.523923e+00       3.535534e-02      -4.730427e-02 
       4.523923e+00      -3.535534e-02      -4.730427e-02 
       2.264108e+00       0.000000e+00      -7.166454e-02 
       2.263227e+00       5.000000e-02      -2.167230e-02 
       2.262346e+00       0.000000e+00       2.831994e-02 
       2.263227e+00      -5.000000e-02      -2.167230e-02 
       4.524004e+00       0.000000e+00      -1.326596e-01 
       4.523956e+00       5.000000e-02      -8.265959e-02 
       4.523909e+00       0.000000e+00      -3.265962e-02 
       4.523956e+00      -5.000000e-02      -8.265959e-02 
       3.393920e+00      -3.535534e-02      -8.751976e-02 
       3.393920e+00       3.535534e-02      -8.751976e-02 
       3.393263e+00       3.535534e-02      -1.681213e-02 
       3.393263e+00      -3.535534e-02      -1.681213e-02 
       4.523433e+00      -3.535534e-02      -1.180111e-01 
       4.523433e+00       3.535534e-02      -1.180111e-01 
       4.524480e+00       3.535534e-02      -4.730813e-02 
       4.524480e+00      -3.535534e-02      -4.730813e-02 
       6.781390e+00      -3.535534e-02      -2.145570e-01 
       6.781390e+00       3.535534e-02      -2.145570e-01 
       6.783490e+00       3.535534e-02      -1.438776e-01 
       6.783490e+00      -3.535534e-02      -1.438776e-01 
       4.523216e+00       0.000000e+00      -1.326541e-01 
       4.523956e+00       5.000000e-02      -8.265959e-02 
       4.524697e+00       0.000000e+00      -3.266508e-02 
       4.523956e+00      -5.000000e-02      -8.265959e-02 
       6.780955e+00       0.000000e+00      -2.291952e-01 
       6.782440e+00       5.000000e-02      -1.792173e-01 
       6.783925e+00       0.000000e+00      -1.292394e-01 
       6.782440e+00      -5.000000e-02      -1.792173e-01 
       5.652411e+00      -3.535534e-02      -1.662850e-01 
       5.652411e+00       3.535534e-02      -1.662850e-01 
       5.653985e+00       3.535534e-02      -9.559186e-02 
       5.653985e+00      -3.535534e-02      -9.559186e-02 
       6.780896e+00      -3.535534e-02      -2.145389e-01 
       6.780896e+00       3.535534e-02      -2.145389e-01 
       6.783985e+00       3.535534e-02      -1.438957e-01 
       6.783985e+00      -3.535534e-02      -1.438957e-01 
       9.036924e+00      -3.535534e-02      -3.426438e-01 
       9.036924e+00       3.535534e-02      -3.426438e-01 
       9.040940e+00       3.535534e-02      -2.720473e-01 
       9.040940e+00      -3.535534e-02      -2.720473e-01 
       6.780256e+00       0.000000e+00      -2.291696e-01 
       6.782440e+00       5.000000e-02      -1.792173e-01 
       6.784624e+00       0.000000e+00      -1.292650e-01 
       6.782440e+00      -5.000000e-02      -1.792173e-01 
       9.036093e+00       0.000000e+00      -3.572649e-01 
       9.038932e+00       5.000000e-02      -3.073455e-01 
       9.041771e+00       0.000000e+00      -2.574262e-01 
       9.038932e+00      -5.000000e-02      -3.073455e-01 
       7.908910e+00      -3.535534e-02      -2.785921e-01 
       7.908910e+00       3.535534e-02      -2.785921e-01 
       7.912462e+00       3.535534e-02      -2.079707e-01 
       7.912462e+00      -3.535534e-02      -2.079707e-01 
       9.036493e+00      -3.535534e-02      -3.426167e-01 
       9.036493e+00       3.535534e-02      -3.426167e-01 
       9.041371e+00       3.535534e-02      -2.720744e-01 
       9.041371e+00      -3.535534e-02      -2.720744e-01 
       1.129084e+01      -3.535534e-02      -4.982856e-01 
       1.129084e+01       3.535534e-02      -4.982856e-01 
       1.129652e+01       3.535534e-02      -4.278032e-01 
       1.129652e+01      -3.535534e-02      -4.278032e-01 
       9.035483e+00       0.000000e+00      -3.572264e-01 
       9.038932e+00       5.000000e-02      -3.073455e-01 
       9.042381e+00       0.000000e+00      -2.574647e-01 
       9.038932e+00      -5.000000e-02      -3.073455e-01 
       1.128967e+01       0.000000e+00      -5.128830e-01 
       1.129368e+01       5.000000e-02      -4.630444e-01 
       1.129770e+01       0.000000e+00      -4.132059e-01 
       1.129368e+01      -5.000000e-02      -4.630444e-01 
       1.016367e+01      -3.535534e-02      -4.204517e-01 
       1.016367e+01       3.535534e-02      -4.204517e-01 
       1.016895e+01       3.535534e-02      -3.499383e-01 
       1.016895e+01      -3.535534e-02      -3.499383e-01 
       1.129048e+01      -3.535534e-02      -4.982540e-01 
       1.129048e+01       3.535534e-02      -4.982540e-01 
       1.129689e+01       3.535534e-02      -4.278348e-01 
       1.129689e+01      -3.535534e-02      -4.278348e-01 
       1.354340e+01      -3.535534e-02      -6.774913e-01 
       1.354340e+01       3.535534e-02      -6.774913e-01 
       1.355049e+01       3.535534e-02      -6.071368e-01 
       1.355049e+01      -3.535534e-02      -6.071368e-01 
       1.128915e+01       0.000000e+00      -5.128383e-01 
       1.129368e+01       5.000000e-02      -4.630444e-01 
       1.129822e+01       0.000000e+00      -4.132505e-01 
       1.129368e+01      -5.000000e-02      -4.630444e-01 
       1.354194e+01       0.000000e+00      -6.920622e-01 
       1.354695e+01       5.000000e-02      -6.423141e-01 
       1.355196e+01       0.000000e+00      -5.925659e-01 
       1.354695e+01      -5.000000e-02      -6.423141e-01 
       1.241694e+01      -3.535534e-02      -5.878731e-01 
       1.241694e+01       3.535534e-02      -5.878731e-01 
       1.242369e+01       3.535534e-02      -5.174854e-01 
       1.242369e+01      -3.535534e-02      -5.174854e-01 
       1.354310e+01      -3.535534e-02      -6.774593e-01 
       1.354310e+01       3.535534e-02      -6.774593e-01 
       1.355080e+01       3.535534e-02      -6.071688e-01 
       1.355080e+01      -3.535534e-02      -6.071688e-01 
       1.579485e+01      -3.535534e-02      -8.762687e-01 
       1.579485e+01       3.535534e-02      -8.762687e-01 
[...]
POINT_DATA      3680 
VECTORS Displacements float
       0.00000000e+00       0.00000000e+00       0.00000000e+00 
       0.00000000e+00       0.00000000e+00       0.00000000e+00 
       0.00000000e+00       0.00000000e+00       0.00000000e+00 
       0.00000000e+00       0.00000000e+00       0.00000000e+00 
       0.00000000e+00       0.00000000e+00      -1.28734273e-04 
       0.00000000e+00       0.00000000e+00      -1.28734273e-04 
       0.00000000e+00       0.00000000e+00      -1.28734273e-04 
       0.00000000e+00       0.00000000e+00      -1.28734273e-04 
       0.00000000e+00       0.00000000e+00       0.00000000e+00 
       0.00000000e+00       0.00000000e+00       0.00000000e+00 
       0.00000000e+00       0.00000000e+00       0.00000000e+00 
       0.00000000e+00       0.00000000e+00       0.00000000e+00 
       0.00000000e+00       0.00000000e+00      -1.28734273e-04 
       0.00000000e+00       0.00000000e+00      -1.28734273e-04 
       0.00000000e+00       0.00000000e+00      -1.28734273e-04 
       0.00000000e+00       0.00000000e+00      -1.28734273e-04 
       0.00000000e+00       0.00000000e+00      -6.43671364e-05 
       0.00000000e+00       0.00000000e+00      -6.43671364e-05 
       0.00000000e+00       0.00000000e+00      -6.43671364e-05 
       0.00000000e+00       0.00000000e+00      -6.43671364e-05 
       0.00000000e+00       0.00000000e+00      -1.28734273e-04 
       0.00000000e+00       0.00000000e+00      -1.28734273e-04 
       0.00000000e+00       0.00000000e+00      -1.28734273e-04 
       0.00000000e+00       0.00000000e+00      -1.28734273e-04 
       0.00000000e+00       0.00000000e+00      -2.55293023e-04 
       0.00000000e+00       0.00000000e+00      -2.55293023e-04 
       0.00000000e+00       0.00000000e+00      -2.55293023e-04 
       0.00000000e+00       0.00000000e+00      -2.55293023e-04 
       0.00000000e+00       0.00000000e+00      -1.28734273e-04 
       0.00000000e+00       0.00000000e+00      -1.28734273e-04 
       0.00000000e+00       0.00000000e+00      -1.28734273e-04 
       0.00000000e+00       0.00000000e+00      -1.28734273e-04 
       0.00000000e+00       0.00000000e+00      -2.55293023e-04 
       0.00000000e+00       0.00000000e+00      -2.55293023e-04 
       0.00000000e+00       0.00000000e+00      -2.55293023e-04 
       0.00000000e+00       0.00000000e+00      -2.55293023e-04 
       0.00000000e+00       0.00000000e+00      -1.92013648e-04 
       0.00000000e+00       0.00000000e+00      -1.92013648e-04 
       0.00000000e+00       0.00000000e+00      -1.92013648e-04 
       0.00000000e+00       0.00000000e+00      -1.92013648e-04 
       0.00000000e+00       0.00000000e+00      -2.55293023e-04 
       0.00000000e+00       0.00000000e+00      -2.55293023e-04 
       0.00000000e+00       0.00000000e+00      -2.55293023e-04 
       0.00000000e+00       0.00000000e+00      -2.55293023e-04 
       4.89351671e-03       0.00000000e+00      -2.16722960e-02 
       4.89351671e-03       0.00000000e+00      -2.16722960e-02 
       4.89351671e-03       0.00000000e+00      -2.16722960e-02 
       4.89351671e-03       0.00000000e+00      -2.16722960e-02 
       0.00000000e+00       0.00000000e+00      -2.55293023e-04 
       0.00000000e+00       0.00000000e+00      -2.55293023e-04 
       0.00000000e+00       0.00000000e+00      -2.55293023e-04 
       0.00000000e+00       0.00000000e+00      -2.55293023e-04 
       4.89351671e-03       0.00000000e+00      -2.16722960e-02 
       4.89351671e-03       0.00000000e+00      -2.16722960e-02 
       4.89351671e-03       0.00000000e+00      -2.16722960e-02 
       4.89351671e-03       0.00000000e+00      -2.16722960e-02 
       2.44675836e-03       0.00000000e+00      -1.09637945e-02 
       2.44675836e-03       0.00000000e+00      -1.09637945e-02 
       2.44675836e-03       0.00000000e+00      -1.09637945e-02 
       2.44675836e-03       0.00000000e+00      -1.09637945e-02 
       4.89351671e-03       0.00000000e+00      -2.16722960e-02 
       4.89351671e-03       0.00000000e+00      -2.16722960e-02 
       4.89351671e-03       0.00000000e+00      -2.16722960e-02 
       4.89351671e-03       0.00000000e+00      -2.16722960e-02 
       7.28948081e-03       0.00000000e+00      -8.26595940e-02 
       7.28948081e-03       0.00000000e+00      -8.26595940e-02 
       7.28948081e-03       0.00000000e+00      -8.26595940e-02 
       7.28948081e-03       0.00000000e+00      -8.26595940e-02 
       4.89351671e-03       0.00000000e+00      -2.16722960e-02 
       4.89351671e-03       0.00000000e+00      -2.16722960e-02 
       4.89351671e-03       0.00000000e+00      -2.16722960e-02 
       4.89351671e-03       0.00000000e+00      -2.16722960e-02 
       7.28948081e-03       0.00000000e+00      -8.26595940e-02 
       7.28948081e-03       0.00000000e+00      -8.26595940e-02 
       7.28948081e-03       0.00000000e+00      -8.26595940e-02 
       7.28948081e-03       0.00000000e+00      -8.26595940e-02 
       6.09149876e-03       0.00000000e+00      -5.21659450e-02 
       6.09149876e-03       0.00000000e+00      -5.21659450e-02 
       6.09149876e-03       0.00000000e+00      -5.21659450e-02 
       6.09149876e-03       0.00000000e+00      -5.21659450e-02 
       7.28948081e-03       0.00000000e+00      -8.26595940e-02 
       7.28948081e-03       0.00000000e+00      -8.26595940e-02 
       7.28948081e-03       0.00000000e+00      -8.26595940e-02 
       7.28948081e-03       0.00000000e+00      -8.26595940e-02 
       7.44035238e-03       0.00000000e+00      -1.79217303e-01 
       7.44035238e-03       0.00000000e+00      -1.79217303e-01 
       7.44035238e-03       0.00000000e+00      -1.79217303e-01 
       7.44035238e-03       0.00000000e+00      -1.79217303e-01 
       7.28948081e-03       0.00000000e+00      -8.26595940e-02 
       7.28948081e-03       0.00000000e+00      -8.26595940e-02 
       7.28948081e-03       0.00000000e+00      -8.26595940e-02 
       7.28948081e-03       0.00000000e+00      -8.26595940e-02 
       7.44035238e-03       0.00000000e+00      -1.79217303e-01 
       7.44035238e-03       0.00000000e+00      -1.79217303e-01 
       7.44035238e-03       0.00000000e+00      -1.79217303e-01 
       7.44035238e-03       0.00000000e+00      -1.79217303e-01 
       7.36491660e-03       0.00000000e+00      -1.30938449e-01 
       7.36491660e-03       0.00000000e+00      -1.30938449e-01 
       7.36491660e-03       0.00000000e+00      -1.30938449e-01 
       7.36491660e-03       0.00000000e+00      -1.30938449e-01 
       7.44035238e-03       0.00000000e+00      -1.79217303e-01 
       7.44035238e-03       0.00000000e+00      -1.79217303e-01 
       7.44035238e-03       0.00000000e+00      -1.79217303e-01 
       7.44035238e-03       0.00000000e+00      -1.79217303e-01 
       5.59859152e-03       0.00000000e+00      -3.07345540e-01 
       5.59859152e-03       0.00000000e+00      -3.07345540e-01 
       5.59859152e-03       0.00000000e+00      -3.07345540e-01 
       5.59859152e-03       0.00000000e+00      -3.07345540e-01 
       7.44035238e-03       0.00000000e+00      -1.79217303e-01 
       7.44035238e-03       0.00000000e+00      -1.79217303e-01 
       7.44035238e-03       0.00000000e+00      -1.79217303e-01 
       7.44035238e-03       0.00000000e+00      -1.79217303e-01 
       5.59859152e-03       0.00000000e+00      -3.07345540e-01 
       5.59859152e-03       0.00000000e+00      -3.07345540e-01 
       5.59859152e-03       0.00000000e+00      -3.07345540e-01 
       5.59859152e-03       0.00000000e+00      -3.07345540e-01 
       6.51947195e-03       0.00000000e+00      -2.43281422e-01 
       6.51947195e-03       0.00000000e+00      -2.43281422e-01 
       6.51947195e-03       0.00000000e+00      -2.43281422e-01 
       6.51947195e-03       0.00000000e+00      -2.43281422e-01 
       5.59859152e-03       0.00000000e+00      -3.07345540e-01 
       5.59859152e-03       0.00000000e+00      -3.07345540e-01 
       5.59859152e-03       0.00000000e+00      -3.07345540e-01 
       5.59859152e-03       0.00000000e+00      -3.07345540e-01 
       2.01665830e-03       0.00000000e+00      -4.63044420e-01 
       2.01665830e-03       0.00000000e+00      -4.63044420e-01 
       2.01665830e-03       0.00000000e+00      -4.63044420e-01 
       2.01665830e-03       0.00000000e+00      -4.63044420e-01 
       5.59859152e-03       0.00000000e+00      -3.07345540e-01 
       5.59859152e-03       0.00000000e+00      -3.07345540e-01 
       5.59859152e-03       0.00000000e+00      -3.07345540e-01 
       5.59859152e-03       0.00000000e+00      -3.07345540e-01 
       2.01665830e-03       0.00000000e+00      -4.63044420e-01 
       2.01665830e-03       0.00000000e+00      -4.63044420e-01 
       2.01665830e-03       0.00000000e+00      -4.63044420e-01 
       2.01665830e-03       0.00000000e+00      -4.63044420e-01 
       3.80762491e-03       0.00000000e+00      -3.85194980e-01 
       3.80762491e-03       0.00000000e+00      -3.85194980e-01 
       3.80762491e-03       0.00000000e+00      -3.85194980e-01 
       3.80762491e-03       0.00000000e+00      -3.85194980e-01 
       2.01665830e-03       0.00000000e+00      -4.63044420e-01 
       2.01665830e-03       0.00000000e+00      -4.63044420e-01 
       2.01665830e-03       0.00000000e+00      -4.63044420e-01 
       2.01665830e-03       0.00000000e+00      -4.63044420e-01 
      -3.05298717e-03       0.00000000e+00      -6.42314061e-01 
      -3.05298717e-03       0.00000000e+00      -6.42314061e-01 
      -3.05298717e-03       0.00000000e+00      -6.42314061e-01 
      -3.05298717e-03       0.00000000e+00      -6.42314061e-01 
       2.01665830e-03       0.00000000e+00      -4.63044420e-01 
       2.01665830e-03       0.00000000e+00      -4.63044420e-01 
       2.01665830e-03       0.00000000e+00      -4.63044420e-01 
       2.01665830e-03       0.00000000e+00      -4.63044420e-01 
      -3.05298717e-03       0.00000000e+00      -6.42314061e-01 
      -3.05298717e-03       0.00000000e+00      -6.42314061e-01 
      -3.05298717e-03       0.00000000e+00      -6.42314061e-01 
      -3.05298717e-03       0.00000000e+00      -6.42314061e-01 
      -5.18164435e-04       0.00000000e+00      -5.52679240e-01 
      -5.18164435e-04       0.00000000e+00      -5.52679240e-01 
      -5.18164435e-04       0.00000000e+00      -5.52679240e-01 
      -5.18164435e-04       0.00000000e+00      -5.52679240e-01 
      -3.05298717e-03       0.00000000e+00      -6.42314061e-01 
      -3.05298717e-03       0.00000000e+00      -6.42314061e-01 
      -3.05298717e-03       0.00000000e+00      -6.42314061e-01 
      -3.05298717e-03       0.00000000e+00      -6.42314061e-01 
      -9.35788483e-03       0.00000000e+00      -8.41154577e-01 
      -9.35788483e-03       0.00000000e+00      -8.41154577e-01 
      -9.35788483e-03       0.00000000e+00      -8.41154577e-01 
      -9.35788483e-03       0.00000000e+00      -8.41154577e-01 
      -3.05298717e-03       0.00000000e+00      -6.42314061e-01 
      -3.05298717e-03       0.00000000e+00      -6.42314061e-01 
      -3.05298717e-03       0.00000000e+00      -6.42314061e-01 
      -3.05298717e-03       0.00000000e+00      -6.42314061e-01 
      -9.35788483e-03       0.00000000e+00      -8.41154577e-01 
      -9.35788483e-03       0.00000000e+00      -8.41154577e-01 
      -9.35788483e-03       0.00000000e+00      -8.41154577e-01 
      -9.35788483e-03       0.00000000e+00      -8.41154577e-01 
      -6.20543600e-03       0.00000000e+00      -7.41734319e-01 
      -6.20543600e-03       0.00000000e+00      -7.41734319e-01 
      -6.20543600e-03       0.00000000e+00      -7.41734319e-01 
      -6.20543600e-03       0.00000000e+00      -7.41734319e-01 
      -9.35788483e-03       0.00000000e+00      -8.41154577e-01 
      -9.35788483e-03       0.00000000e+00      -8.41154577e-01 
      -9.35788483e-03       0.00000000e+00      -8.41154577e-01 
      -9.35788483e-03       0.00000000e+00      -8.41154577e-01 
      -1.66455746e-02       0.00000000e+00      -1.05556609e+00 
      -1.66455746e-02       0.00000000e+00      -1.05556609e+00 
      -1.66455746e-02       0.00000000e+00      -1.05556609e+00 
      -1.66455746e-02       0.00000000e+00      -1.05556609e+00 
      -9.35788483e-03       0.00000000e+00      -8.41154577e-01 
      -9.35788483e-03       0.00000000e+00      -8.41154577e-01 
      -9.35788483e-03       0.00000000e+00      -8.41154577e-01 
      -9.35788483e-03       0.00000000e+00      -8.41154577e-01 
      -1.66455746e-02       0.00000000e+00      -1.05556609e+00 
      -1.66455746e-02       0.00000000e+00      -1.05556609e+00 
      -1.66455746e-02       0.00000000e+00      -1.05556609e+00 
      -1.66455746e-02       0.00000000e+00      -1.05556609e+00 
      -1.30017297e-02       0.00000000e+00      -9.48360332e-01 
      -1.30017297e-02       0.00000000e+00      -9.48360332e-01 
      -1.30017297e-02       0.00000000e+00      -9.48360332e-01 
      -1.30017297e-02       0.00000000e+00      -9.48360332e-01 
      -1.66455746e-02       0.00000000e+00      -1.05556609e+00 
      -1.66455746e-02       0.00000000e+00      -1.05556609e+00 
      -1.66455746e-02       0.00000000e+00      -1.05556609e+00 
      -1.66455746e-02       0.00000000e+00      -1.05556609e+00 
      -2.46635963e-02       0.00000000e+00      -1.28154870e+00 
      -2.46635963e-02       0.00000000e+00      -1.28154870e+00 
      -2.46635963e-02       0.00000000e+00      -1.28154870e+00 
      -2.46635963e-02       0.00000000e+00      -1.28154870e+00 
      -1.66455746e-02       0.00000000e+00      -1.05556609e+00 
      -1.66455746e-02       0.00000000e+00      -1.05556609e+00 
      -1.66455746e-02       0.00000000e+00      -1.05556609e+00 
      -1.66455746e-02       0.00000000e+00      -1.05556609e+00 
      -2.46635963e-02       0.00000000e+00      -1.28154870e+00 
      -2.46635963e-02       0.00000000e+00      -1.28154870e+00 
      -2.46635963e-02       0.00000000e+00      -1.28154870e+00 
      -2.46635963e-02       0.00000000e+00      -1.28154870e+00 
      -2.06545855e-02       0.00000000e+00      -1.16855740e+00 
      -2.06545855e-02       0.00000000e+00      -1.16855740e+00 
      -2.06545855e-02       0.00000000e+00      -1.16855740e+00 
      -2.06545855e-02       0.00000000e+00      -1.16855740e+00 
      -2.46635963e-02       0.00000000e+00      -1.28154870e+00 
      -2.46635963e-02       0.00000000e+00      -1.28154870e+00 
      -2.46635963e-02       0.00000000e+00      -1.28154870e+00 
      -2.46635963e-02       0.00000000e+00      -1.28154870e+00 
      -3.08377643e-02       0.00000000e+00      -1.48747231e+00 
      -3.08377643e-02       0.00000000e+00      -1.48747231e+00 
      -3.08377643e-02       0.00000000e+00      -1.48747231e+00 
      -3.08377643e-02       0.00000000e+00      -1.48747231e+00 
      -2.46635963e-02       0.00000000e+00      -1.28154870e+00 
      -2.46635963e-02       0.00000000e+00      -1.28154870e+00 
      -2.46635963e-02       0.00000000e+00      -1.28154870e+00 
      -2.46635963e-02       0.00000000e+00      -1.28154870e+00 
      -3.08377643e-02       0.00000000e+00      -1.48747231e+00 
      -3.08377643e-02       0.00000000e+00      -1.48747231e+00 
      -3.08377643e-02       0.00000000e+00      -1.48747231e+00 
      -3.08377643e-02       0.00000000e+00      -1.48747231e+00 
      -2.77506803e-02       0.00000000e+00      -1.38451051e+00 
      -2.77506803e-02       0.00000000e+00      -1.38451051e+00 
      -2.77506803e-02       0.00000000e+00      -1.38451051e+00 
      -2.77506803e-02       0.00000000e+00      -1.38451051e+00 
      -3.08377643e-02       0.00000000e+00      -1.48747231e+00 
      -3.08377643e-02       0.00000000e+00      -1.48747231e+00 
      -3.08377643e-02       0.00000000e+00      -1.48747231e+00 
      -3.08377643e-02       0.00000000e+00      -1.48747231e+00 
      -3.46582664e-02       0.00000000e+00      -1.65068696e+00 
      -3.46582664e-02       0.00000000e+00      -1.65068696e+00 
      -3.46582664e-02       0.00000000e+00      -1.65068696e+00 
      -3.46582664e-02       0.00000000e+00      -1.65068696e+00 
      -3.08377643e-02       0.00000000e+00      -1.48747231e+00 
      -3.08377643e-02       0.00000000e+00      -1.48747231e+00 
      -3.08377643e-02       0.00000000e+00      -1.48747231e+00 
      -3.08377643e-02       0.00000000e+00      -1.48747231e+00 
      -3.46582664e-02       0.00000000e+00      -1.65068696e+00 
      -3.46582664e-02       0.00000000e+00      -1.65068696e+00 
      -3.46582664e-02       0.00000000e+00      -1.65068696e+00 
      -3.46582664e-02       0.00000000e+00      -1.65068696e+00 
      -3.27480153e-02       0.00000000e+00      -1.56907963e+00 
      -3.27480153e-02       0.00000000e+00      -1.56907963e+00 
      -3.27480153e-02       0.00000000e+00      -1.56907963e+00 
      -3.27480153e-02       0.00000000e+00      -1.56907963e+00 
      -3.46582664e-02       0.00000000e+00      -1.65068696e+00 
      -3.46582664e-02       0.00000000e+00      -1.65068696e+00 
      -3.46582664e-02       0.00000000e+00      -1.65068696e+00 
      -3.46582664e-02       0.00000000e+00      -1.65068696e+00 
      -3.66522348e-02       0.00000000e+00      -1.78075785e+00 
      -3.66522348e-02       0.00000000e+00      -1.78075785e+00 
      -3.66522348e-02       0.00000000e+00      -1.78075785e+00 
      -3.66522348e-02       0.00000000e+00      -1.78075785e+00 
      -3.46582664e-02       0.00000000e+00      -1.65068696e+00 
      -3.46582664e-02       0.00000000e+00      -1.65068696e+00 
      -3.46582664e-02       0.00000000e+00      -1.65068696e+00 
      -3.46582664e-02       0.00000000e+00      -1.65068696e+00 
      -3.66522348e-02       0.00000000e+00      -1.78075785e+00 
      -3.66522348e-02       0.00000000e+00      -1.78075785e+00 
      -3.66522348e-02       0.00000000e+00      -1.78075785e+00 
      -3.66522348e-02       0.00000000e+00      -1.78075785e+00 
      -3.56552506e-02       0.00000000e+00      -1.71572240e+00 
      -3.56552506e-02       0.00000000e+00      -1.71572240e+00 
      -3.56552506e-02       0.00000000e+00      -1.71572240e+00 
      -3.56552506e-02       0.00000000e+00      -1.71572240e+00 
      -3.66522348e-02       0.00000000e+00      -1.78075785e+00 
      -3.66522348e-02       0.00000000e+00      -1.78075785e+00 
      -3.66522348e-02       0.00000000e+00      -1.78075785e+00 
      -3.66522348e-02       0.00000000e+00      -1.78075785e+00 
      -3.73468017e-02       0.00000000e+00      -1.88725017e+00 
      -3.73468017e-02       0.00000000e+00      -1.88725017e+00 
      -3.73468017e-02       0.00000000e+00      -1.88725017e+00 
      -3.73468017e-02       0.00000000e+00      -1.88725017e+00 
      -3.66522348e-02       0.00000000e+00      -1.78075785e+00 
      -3.66522348e-02       0.00000000e+00      -1.78075785e+00 
      -3.66522348e-02       0.00000000e+00      -1.78075785e+00 
      -3.66522348e-02       0.00000000e+00      -1.78075785e+00 
      -3.73468017e-02       0.00000000e+00      -1.88725017e+00 
      -3.73468017e-02       0.00000000e+00      -1.88725017e+00 
      -3.73468017e-02       0.00000000e+00      -1.88725017e+00 
      -3.73468017e-02       0.00000000e+00      -1.88725017e+00 
      -3.69995182e-02       0.00000000e+00      -1.83400401e+00 
      -3.69995182e-02       0.00000000e+00      -1.83400401e+00 
      -3.69995182e-02       0.00000000e+00      -1.83400401e+00 
      -3.69995182e-02       0.00000000e+00      -1.83400401e+00 
      -3.73468017e-02       0.00000000e+00      -1.88725017e+00 
      -3.73468017e-02       0.00000000e+00      -1.88725017e+00 
      -3.73468017e-02       0.00000000e+00      -1.88725017e+00 
      -3.73468017e-02       0.00000000e+00      -1.88725017e+00 
      -3.72690991e-02       0.00000000e+00      -1.97972910e+00 
      -3.72690991e-02       0.00000000e+00      -1.97972910e+00 