# vtk DataFile Version 2.0
./output/TransmissionLine_Selfweight/TransmissionLine_Selfweight_0003.vtk
ASCII
DATASET UNSTRUCTURED_GRID

POINTS 3680 float
      -3.535534e-02      -3.535534e-02       5.000000e+00 
      -3.535534e-02       3.535534e-02       5.000000e+00 
       3.535534e-02       3.535534e-02       5.000000e+00 
       3.535534e-02      -3.535534e-02       5.000000e+00 
      -3.535534e-02      -3.535534e-02       2.499963e+00 
      -3.535534e-02       3.535534e-02       2.499963e+00 
       3.535534e-02       3.535534e-02       2.499963e+00 
       3.535534e-02      -3.535534e-02       2.499963e+00 
      -5.000000e-02       0.000000e+00       5.000000e+00 
       0.000000e+00       5.000000e-02       5.000000e+00 
       5.000000e-02       0.000000e+00       5.000000e+00 
       0.000000e+00      -5.000000e-02       5.000000e+00 
      -5.000000e-02       0.000000e+00       2.499963e+00 
       0.000000e+00       5.000000e-02       2.499963e+00 
       5.000000e-02       0.000000e+00       2.499963e+00 
       0.000000e+00      -5.000000e-02       2.499963e+00 
      -3.535534e-02      -3.535534e-02       3.749982e+00 
      -3.535534e-02       3.535534e-02       3.749982e+00 
       3.535534e-02       3.535534e-02       3.749982e+00 
       3.535534e-02      -3.535534e-02       3.749982e+00 
      -3.535534e-02      -3.535534e-02       2.499963e+00 
      -3.535534e-02       3.535534e-02       2.499963e+00 
       3.535534e-02       3.535534e-02       2.499963e+00 
       3.535534e-02      -3.535534e-02       2.499963e+00 
      -3.535534e-02      -3.535534e-02      -7.181062e-05 
      -3.535534e-02       3.535534e-02      -7.181062e-05 
       3.535534e-02       3.535534e-02      -7.181062e-05 
       3.535534e-02      -3.535534e-02      -7.181062e-05 
      -5.000000e-02       0.000000e+00       2.499963e+00 
       0.000000e+00       5.000000e-02       2.499963e+00 
       5.000000e-02       0.000000e+00       2.499963e+00 
       0.000000e+00      -5.000000e-02       2.499963e+00 
      -5.000000e-02       0.000000e+00      -7.181062e-05 
       0.000000e+00       5.000000e-02      -7.181062e-05 
       5.000000e-02       0.000000e+00      -7.181062e-05 
       0.000000e+00      -5.000000e-02      -7.181062e-05 
      -3.535534e-02      -3.535534e-02       1.249946e+00 
      -3.535534e-02       3.535534e-02       1.249946e+00 
       3.535534e-02       3.535534e-02       1.249946e+00 
       3.535534e-02      -3.535534e-02       1.249946e+00 
       1.294175e-03      -3.535534e-02      -3.540346e-02 
       1.294175e-03       3.535534e-02      -3.540346e-02 
      -1.294175e-03       3.535534e-02       3.525983e-02 
      -1.294175e-03      -3.535534e-02       3.525983e-02 
       2.260024e+00      -3.535534e-02      -7.349871e-02 
       2.260024e+00       3.535534e-02      -7.349871e-02 
       2.259718e+00       3.535534e-02      -2.788695e-03 
       2.259718e+00      -3.535534e-02      -2.788695e-03 
       1.830240e-03       0.000000e+00      -5.003830e-02 
       0.000000e+00       5.000000e-02      -7.181062e-05 
      -1.830240e-03       0.000000e+00       4.989468e-02 
       0.000000e+00      -5.000000e-02      -7.181062e-05 
       2.260087e+00       0.000000e+00      -8.814324e-02 
       2.259871e+00       5.000000e-02      -3.814370e-02 
       2.259655e+00       0.000000e+00       1.185583e-02 
       2.259871e+00      -5.000000e-02      -3.814370e-02 
       1.130659e+00      -3.535534e-02      -5.445569e-02 
       1.130659e+00       3.535534e-02      -5.445569e-02 
       1.129212e+00       3.535534e-02       1.624018e-02 
       1.129212e+00      -3.535534e-02       1.624018e-02 
       2.259028e+00      -3.535534e-02      -7.348898e-02 
       2.259028e+00       3.535534e-02      -7.348898e-02 
       2.260714e+00       3.535534e-02      -2.798426e-03 
       2.260714e+00      -3.535534e-02      -2.798426e-03 
       4.514643e+00      -3.535534e-02      -1.751355e-01 
       4.514643e+00       3.535534e-02      -1.751355e-01 
       4.518034e+00       3.535534e-02      -1.045062e-01 
       4.518034e+00      -3.535534e-02      -1.045062e-01 
       2.258678e+00       0.000000e+00      -8.812947e-02 
       2.259871e+00       5.000000e-02      -3.814370e-02 
       2.261064e+00       0.000000e+00       1.184207e-02 
       2.259871e+00      -5.000000e-02      -3.814370e-02 
       4.513940e+00       0.000000e+00      -1.897633e-01 
       4.516339e+00       5.000000e-02      -1.398209e-01 
       4.518737e+00       0.000000e+00      -8.987844e-02 
       4.516339e+00      -5.000000e-02      -1.398209e-01 
       3.386835e+00      -3.535534e-02      -1.243148e-01 
       3.386835e+00       3.535534e-02      -1.243148e-01 
       3.389375e+00       3.535534e-02      -5.364977e-02 
       3.389375e+00      -3.535534e-02      -5.364977e-02 
       4.513936e+00      -3.535534e-02      -1.750945e-01 
       4.513936e+00       3.535534e-02      -1.750945e-01 
       4.518742e+00       3.535534e-02      -1.045473e-01 
       4.518742e+00      -3.535534e-02      -1.045473e-01 
       6.767422e+00      -3.535534e-02      -3.219264e-01 
       6.767422e+00       3.535534e-02      -3.219264e-01 
       6.773353e+00       3.535534e-02      -2.514649e-01 
       6.773353e+00      -3.535534e-02      -2.514649e-01 
       4.512940e+00       0.000000e+00      -1.897053e-01 
       4.516339e+00       5.000000e-02      -1.398209e-01 
       4.519737e+00       0.000000e+00      -8.993652e-02 
       4.516339e+00      -5.000000e-02      -1.398209e-01 
       6.766194e+00       0.000000e+00      -3.365194e-01 
       6.770388e+00       5.000000e-02      -2.866957e-01 
       6.774582e+00       0.000000e+00      -2.368719e-01 
       6.770388e+00      -5.000000e-02      -2.866957e-01 
       5.640679e+00      -3.535534e-02      -2.485116e-01 
       5.640679e+00       3.535534e-02      -2.485116e-01 
       5.646048e+00       3.535534e-02      -1.780050e-01 
       5.646048e+00      -3.535534e-02      -1.780050e-01 
       6.767004e+00      -3.535534e-02      -3.218887e-01 
       6.767004e+00       3.535534e-02      -3.218887e-01 
       6.773772e+00       3.535534e-02      -2.515026e-01 
       6.773772e+00      -3.535534e-02      -2.515026e-01 
       9.019345e+00      -3.535534e-02      -4.955258e-01 
       9.019345e+00       3.535534e-02      -4.955258e-01 
       9.026661e+00       3.535534e-02      -4.251947e-01 
       9.026661e+00      -3.535534e-02      -4.251947e-01 
       6.765602e+00       0.000000e+00      -3.364661e-01 
       6.770388e+00       5.000000e-02      -2.866957e-01 
       6.775173e+00       0.000000e+00      -2.369252e-01 
       6.770388e+00      -5.000000e-02      -2.866957e-01 
       9.017830e+00       0.000000e+00      -5.100919e-01 
       9.023003e+00       5.000000e-02      -4.603602e-01 
       9.028177e+00       0.000000e+00      -4.106286e-01 
       9.023003e+00      -5.000000e-02      -4.603602e-01 
       7.893175e+00      -3.535534e-02      -4.087075e-01 
       7.893175e+00       3.535534e-02      -4.087075e-01 
       7.900217e+00       3.535534e-02      -3.383484e-01 
       7.900217e+00      -3.535534e-02      -3.383484e-01 
       9.019215e+00      -3.535534e-02      -4.955120e-01 
       9.019215e+00       3.535534e-02      -4.955120e-01 
       9.026792e+00       3.535534e-02      -4.252085e-01 
       9.026792e+00      -3.535534e-02      -4.252085e-01 
       1.127139e+01      -3.535534e-02      -6.775601e-01 
       1.127139e+01       3.535534e-02      -6.775601e-01 
       1.127895e+01       3.535534e-02      -6.072538e-01 
       1.127895e+01      -3.535534e-02      -6.072538e-01 
       9.017645e+00       0.000000e+00      -5.100723e-01 
       9.023003e+00       5.000000e-02      -4.603602e-01 
       9.028361e+00       0.000000e+00      -4.106482e-01 
       9.023003e+00      -5.000000e-02      -4.603602e-01 
       1.126983e+01       0.000000e+00      -6.921210e-01 
       1.127517e+01       5.000000e-02      -6.424069e-01 
       1.128051e+01       0.000000e+00      -5.926929e-01 
       1.127517e+01      -5.000000e-02      -6.424069e-01 
       1.014530e+01      -3.535534e-02      -5.865360e-01 
       1.014530e+01       3.535534e-02      -5.865360e-01 
       1.015287e+01       3.535534e-02      -5.162311e-01 
       1.015287e+01      -3.535534e-02      -5.162311e-01 
       1.127155e+01      -3.535534e-02      -6.775765e-01 
       1.127155e+01       3.535534e-02      -6.775765e-01 
       1.127879e+01       3.535534e-02      -6.072374e-01 
       1.127879e+01      -3.535534e-02      -6.072374e-01 
       1.352455e+01      -3.535534e-02      -8.496271e-01 
       1.352455e+01       3.535534e-02      -8.496271e-01 
       1.353119e+01       3.535534e-02      -7.792289e-01 
       1.353119e+01      -3.535534e-02      -7.792289e-01 
       1.127005e+01       0.000000e+00      -6.921442e-01 
       1.127517e+01       5.000000e-02      -6.424069e-01 
       1.128029e+01       0.000000e+00      -5.926697e-01 
       1.127517e+01      -5.000000e-02      -6.424069e-01 
       1.352318e+01       0.000000e+00      -8.642071e-01 
       1.352787e+01       5.000000e-02      -8.144280e-01 
       1.353257e+01       0.000000e+00      -7.646489e-01 
       1.352787e+01      -5.000000e-02      -8.144280e-01 
       1.239805e+01      -3.535534e-02      -7.636021e-01 
       1.239805e+01       3.535534e-02      -7.636021e-01 
       1.240499e+01       3.535534e-02      -6.932328e-01 
       1.240499e+01      -3.535534e-02      -6.932328e-01 
       1.352500e+01      -3.535534e-02      -8.496662e-01 
       1.352500e+01       3.535534e-02      -8.496662e-01 
       1.353075e+01       3.535534e-02      -7.791898e-01 
       1.353075e+01      -3.535534e-02      -7.791898e-01 
       1.577981e+01      -3.535534e-02      -9.932970e-01 
       1.577981e+01       3.535534e-02      -9.932970e-01 
[...]
POINT_DATA      3680 
VECTORS Displacements float
       0.00000000e+00       0.00000000e+00       0.00000000e+00 
       0.00000000e+00       0.00000000e+00       0.00000000e+00 
       0.00000000e+00       0.00000000e+00       0.00000000e+00 
       0.00000000e+00       0.00000000e+00       0.00000000e+00 
       0.00000000e+00       0.00000000e+00      -3.69937801e-05 
       0.00000000e+00       0.00000000e+00      -3.69937801e-05 
       0.00000000e+00       0.00000000e+00      -3.69937801e-05 
       0.00000000e+00       0.00000000e+00      -3.69937801e-05 
       0.00000000e+00       0.00000000e+00       0.00000000e+00 
       0.00000000e+00       0.00000000e+00       0.00000000e+00 
       0.00000000e+00       0.00000000e+00       0.00000000e+00 
       0.00000000e+00       0.00000000e+00       0.00000000e+00 
       0.00000000e+00       0.00000000e+00      -3.69937801e-05 
       0.00000000e+00       0.00000000e+00      -3.69937801e-05 
       0.00000000e+00       0.00000000e+00      -3.69937801e-05 
       0.00000000e+00       0.00000000e+00      -3.69937801e-05 
       0.00000000e+00       0.00000000e+00      -1.84968900e-05 
       0.00000000e+00       0.00000000e+00      -1.84968900e-05 
       0.00000000e+00       0.00000000e+00      -1.84968900e-05 
       0.00000000e+00       0.00000000e+00      -1.84968900e-05 
       0.00000000e+00       0.00000000e+00      -3.69937801e-05 
       0.00000000e+00       0.00000000e+00      -3.69937801e-05 
       0.00000000e+00       0.00000000e+00      -3.69937801e-05 
       0.00000000e+00       0.00000000e+00      -3.69937801e-05 
       0.00000000e+00       0.00000000e+00      -7.18106157e-05 
       0.00000000e+00       0.00000000e+00      -7.18106157e-05 
       0.00000000e+00       0.00000000e+00      -7.18106157e-05 
       0.00000000e+00       0.00000000e+00      -7.18106157e-05 
       0.00000000e+00       0.00000000e+00      -3.69937801e-05 
       0.00000000e+00       0.00000000e+00      -3.69937801e-05 
       0.00000000e+00       0.00000000e+00      -3.69937801e-05 
       0.00000000e+00       0.00000000e+00      -3.69937801e-05 
       0.00000000e+00       0.00000000e+00      -7.18106157e-05 
       0.00000000e+00       0.00000000e+00      -7.18106157e-05 
       0.00000000e+00       0.00000000e+00      -7.18106157e-05 
       0.00000000e+00       0.00000000e+00      -7.18106157e-05 
       0.00000000e+00       0.00000000e+00      -5.44021979e-05 
       0.00000000e+00       0.00000000e+00      -5.44021979e-05 
       0.00000000e+00       0.00000000e+00      -5.44021979e-05 
       0.00000000e+00       0.00000000e+00      -5.44021979e-05 
       0.00000000e+00       0.00000000e+00      -7.18106157e-05 
       0.00000000e+00       0.00000000e+00      -7.18106157e-05 
       0.00000000e+00       0.00000000e+00      -7.18106157e-05 
       0.00000000e+00       0.00000000e+00      -7.18106157e-05 
       1.53772091e-03       0.00000000e+00      -3.81437036e-02 
       1.53772091e-03       0.00000000e+00      -3.81437036e-02 
       1.53772091e-03       0.00000000e+00      -3.81437036e-02 
       1.53772091e-03       0.00000000e+00      -3.81437036e-02 
       0.00000000e+00       0.00000000e+00      -7.18106157e-05 
       0.00000000e+00       0.00000000e+00      -7.18106157e-05 
       0.00000000e+00       0.00000000e+00      -7.18106157e-05 
       0.00000000e+00       0.00000000e+00      -7.18106157e-05 
       1.53772091e-03       0.00000000e+00      -3.81437036e-02 
       1.53772091e-03       0.00000000e+00      -3.81437036e-02 
       1.53772091e-03       0.00000000e+00      -3.81437036e-02 
       1.53772091e-03       0.00000000e+00      -3.81437036e-02 
       7.68860454e-04       0.00000000e+00      -1.91077571e-02 
       7.68860454e-04       0.00000000e+00      -1.91077571e-02 
       7.68860454e-04       0.00000000e+00      -1.91077571e-02 
       7.68860454e-04       0.00000000e+00      -1.91077571e-02 
       1.53772091e-03       0.00000000e+00      -3.81437036e-02 
       1.53772091e-03       0.00000000e+00      -3.81437036e-02 
       1.53772091e-03       0.00000000e+00      -3.81437036e-02 
       1.53772091e-03       0.00000000e+00      -3.81437036e-02 
      -3.28033695e-04       0.00000000e+00      -1.39820894e-01 
      -3.28033695e-04       0.00000000e+00      -1.39820894e-01 
      -3.28033695e-04       0.00000000e+00      -1.39820894e-01 
      -3.28033695e-04       0.00000000e+00      -1.39820894e-01 
       1.53772091e-03       0.00000000e+00      -3.81437036e-02 
       1.53772091e-03       0.00000000e+00      -3.81437036e-02 
       1.53772091e-03       0.00000000e+00      -3.81437036e-02 
       1.53772091e-03       0.00000000e+00      -3.81437036e-02 
      -3.28033695e-04       0.00000000e+00      -1.39820894e-01 
      -3.28033695e-04       0.00000000e+00      -1.39820894e-01 
      -3.28033695e-04       0.00000000e+00      -1.39820894e-01 
      -3.28033695e-04       0.00000000e+00      -1.39820894e-01 
       6.04843607e-04       0.00000000e+00      -8.89822987e-02 
       6.04843607e-04       0.00000000e+00      -8.89822987e-02 
       6.04843607e-04       0.00000000e+00      -8.89822987e-02 
       6.04843607e-04       0.00000000e+00      -8.89822987e-02 
      -3.28033695e-04       0.00000000e+00      -1.39820894e-01 
      -3.28033695e-04       0.00000000e+00      -1.39820894e-01 
      -3.28033695e-04       0.00000000e+00      -1.39820894e-01 
      -3.28033695e-04       0.00000000e+00      -1.39820894e-01 
      -4.61227882e-03       0.00000000e+00      -2.86695650e-01 
      -4.61227882e-03       0.00000000e+00      -2.86695650e-01 
      -4.61227882e-03       0.00000000e+00      -2.86695650e-01 
      -4.61227882e-03       0.00000000e+00      -2.86695650e-01 
      -3.28033695e-04       0.00000000e+00      -1.39820894e-01 
      -3.28033695e-04       0.00000000e+00      -1.39820894e-01 
      -3.28033695e-04       0.00000000e+00      -1.39820894e-01 
      -3.28033695e-04       0.00000000e+00      -1.39820894e-01 
      -4.61227882e-03       0.00000000e+00      -2.86695650e-01 
      -4.61227882e-03       0.00000000e+00      -2.86695650e-01 
      -4.61227882e-03       0.00000000e+00      -2.86695650e-01 
      -4.61227882e-03       0.00000000e+00      -2.86695650e-01 
      -2.47015626e-03       0.00000000e+00      -2.13258272e-01 
      -2.47015626e-03       0.00000000e+00      -2.13258272e-01 
      -2.47015626e-03       0.00000000e+00      -2.13258272e-01 
      -2.47015626e-03       0.00000000e+00      -2.13258272e-01 
      -4.61227882e-03       0.00000000e+00      -2.86695650e-01 
      -4.61227882e-03       0.00000000e+00      -2.86695650e-01 
      -4.61227882e-03       0.00000000e+00      -2.86695650e-01 
      -4.61227882e-03       0.00000000e+00      -2.86695650e-01 
      -1.03300295e-02       0.00000000e+00      -4.60360241e-01 
      -1.03300295e-02       0.00000000e+00      -4.60360241e-01 
      -1.03300295e-02       0.00000000e+00      -4.60360241e-01 
      -1.03300295e-02       0.00000000e+00      -4.60360241e-01 
      -4.61227882e-03       0.00000000e+00      -2.86695650e-01 
      -4.61227882e-03       0.00000000e+00      -2.86695650e-01 
      -4.61227882e-03       0.00000000e+00      -2.86695650e-01 
      -4.61227882e-03       0.00000000e+00      -2.86695650e-01 
      -1.03300295e-02       0.00000000e+00      -4.60360241e-01 
      -1.03300295e-02       0.00000000e+00      -4.60360241e-01 
      -1.03300295e-02       0.00000000e+00      -4.60360241e-01 
      -1.03300295e-02       0.00000000e+00      -4.60360241e-01 
      -7.47115416e-03       0.00000000e+00      -3.73527946e-01 
      -7.47115416e-03       0.00000000e+00      -3.73527946e-01 
      -7.47115416e-03       0.00000000e+00      -3.73527946e-01 
      -7.47115416e-03       0.00000000e+00      -3.73527946e-01 
      -1.03300295e-02       0.00000000e+00      -4.60360241e-01 
      -1.03300295e-02       0.00000000e+00      -4.60360241e-01 
      -1.03300295e-02       0.00000000e+00      -4.60360241e-01 
      -1.03300295e-02       0.00000000e+00      -4.60360241e-01 
      -1.64963007e-02       0.00000000e+00      -6.42406935e-01 
      -1.64963007e-02       0.00000000e+00      -6.42406935e-01 
      -1.64963007e-02       0.00000000e+00      -6.42406935e-01 
      -1.64963007e-02       0.00000000e+00      -6.42406935e-01 
      -1.03300295e-02       0.00000000e+00      -4.60360241e-01 
      -1.03300295e-02       0.00000000e+00      -4.60360241e-01 
      -1.03300295e-02       0.00000000e+00      -4.60360241e-01 
      -1.03300295e-02       0.00000000e+00      -4.60360241e-01 
      -1.64963007e-02       0.00000000e+00      -6.42406935e-01 
      -1.64963007e-02       0.00000000e+00      -6.42406935e-01 
      -1.64963007e-02       0.00000000e+00      -6.42406935e-01 
      -1.64963007e-02       0.00000000e+00      -6.42406935e-01 
      -1.34131651e-02       0.00000000e+00      -5.51383588e-01 
      -1.34131651e-02       0.00000000e+00      -5.51383588e-01 
      -1.34131651e-02       0.00000000e+00      -5.51383588e-01 
      -1.34131651e-02       0.00000000e+00      -5.51383588e-01 
      -1.64963007e-02       0.00000000e+00      -6.42406935e-01 
      -1.64963007e-02       0.00000000e+00      -6.42406935e-01 
      -1.64963007e-02       0.00000000e+00      -6.42406935e-01 
      -1.64963007e-02       0.00000000e+00      -6.42406935e-01 
      -2.21261075e-02       0.00000000e+00      -8.14428001e-01 
      -2.21261075e-02       0.00000000e+00      -8.14428001e-01 
      -2.21261075e-02       0.00000000e+00      -8.14428001e-01 
      -2.21261075e-02       0.00000000e+00      -8.14428001e-01 
      -1.64963007e-02       0.00000000e+00      -6.42406935e-01 
      -1.64963007e-02       0.00000000e+00      -6.42406935e-01 
      -1.64963007e-02       0.00000000e+00      -6.42406935e-01 
      -1.64963007e-02       0.00000000e+00      -6.42406935e-01 
      -2.21261075e-02       0.00000000e+00      -8.14428001e-01 
      -2.21261075e-02       0.00000000e+00      -8.14428001e-01 
      -2.21261075e-02       0.00000000e+00      -8.14428001e-01 
      -2.21261075e-02       0.00000000e+00      -8.14428001e-01 
      -1.93112041e-02       0.00000000e+00      -7.28417468e-01 
      -1.93112041e-02       0.00000000e+00      -7.28417468e-01 
      -1.93112041e-02       0.00000000e+00      -7.28417468e-01 
      -1.93112041e-02       0.00000000e+00      -7.28417468e-01 
      -2.21261075e-02       0.00000000e+00      -8.14428001e-01 
      -2.21261075e-02       0.00000000e+00      -8.14428001e-01 
      -2.21261075e-02       0.00000000e+00      -8.14428001e-01 
      -2.21261075e-02       0.00000000e+00      -8.14428001e-01 
      -2.62344649e-02       0.00000000e+00      -9.58015708e-01 
      -2.62344649e-02       0.00000000e+00      -9.58015708e-01 
      -2.62344649e-02       0.00000000e+00      -9.58015708e-01 
      -2.62344649e-02       0.00000000e+00      -9.58015708e-01 
      -2.21261075e-02       0.00000000e+00      -8.14428001e-01 
      -2.21261075e-02       0.00000000e+00      -8.14428001e-01 
      -2.21261075e-02       0.00000000e+00      -8.14428001e-01 
      -2.21261075e-02       0.00000000e+00      -8.14428001e-01 
      -2.62344649e-02       0.00000000e+00      -9.58015708e-01 
      -2.62344649e-02       0.00000000e+00      -9.58015708e-01 
      -2.62344649e-02       0.00000000e+00      -9.58015708e-01 
      -2.62344649e-02       0.00000000e+00      -9.58015708e-01 
      -2.41802862e-02       0.00000000e+00      -8.86221854e-01 
      -2.41802862e-02       0.00000000e+00      -8.86221854e-01 
      -2.41802862e-02       0.00000000e+00      -8.86221854e-01 
      -2.41802862e-02       0.00000000e+00      -8.86221854e-01 
      -2.62344649e-02       0.00000000e+00      -9.58015708e-01 
      -2.62344649e-02       0.00000000e+00      -9.58015708e-01 
      -2.62344649e-02       0.00000000e+00      -9.58015708e-01 
      -2.62344649e-02       0.00000000e+00      -9.58015708e-01 
      -2.78363878e-02       0.00000000e+00      -1.05476232e+00 
      -2.78363878e-02       0.00000000e+00      -1.05476232e+00 
      -2.78363878e-02       0.00000000e+00      -1.05476232e+00 
      -2.78363878e-02       0.00000000e+00      -1.05476232e+00 
      -2.62344649e-02       0.00000000e+00      -9.58015708e-01 
      -2.62344649e-02       0.00000000e+00      -9.58015708e-01 
      -2.62344649e-02       0.00000000e+00      -9.58015708e-01 
      -2.62344649e-02       0.00000000e+00      -9.58015708e-01 
      -2.78363878e-02       0.00000000e+00      -1.05476232e+00 
      -2.78363878e-02       0.00000000e+00      -1.05476232e+00 
      -2.78363878e-02       0.00000000e+00      -1.05476232e+00 
      -2.78363878e-02       0.00000000e+00      -1.05476232e+00 
      -2.70354263e-02       0.00000000e+00      -1.00638902e+00 
      -2.70354263e-02       0.00000000e+00      -1.00638902e+00 
      -2.70354263e-02       0.00000000e+00      -1.00638902e+00 
      -2.70354263e-02       0.00000000e+00      -1.00638902e+00 
      -2.78363878e-02       0.00000000e+00      -1.05476232e+00 
      -2.78363878e-02       0.00000000e+00      -1.05476232e+00 
      -2.78363878e-02       0.00000000e+00      -1.05476232e+00 
      -2.78363878e-02       0.00000000e+00      -1.05476232e+00 
      -2.59468913e-02       0.00000000e+00      -1.08626012e+00 
      -2.59468913e-02       0.00000000e+00      -1.08626012e+00 
      -2.59468913e-02       0.00000000e+00      -1.08626012e+00 
      -2.59468913e-02       0.00000000e+00      -1.08626012e+00 
      -2.78363878e-02       0.00000000e+00      -1.05476232e+00 
      -2.78363878e-02       0.00000000e+00      -1.05476232e+00 
      -2.78363878e-02       0.00000000e+00      -1.05476232e+00 
      -2.78363878e-02       0.00000000e+00      -1.05476232e+00 
      -2.59468913e-02       0.00000000e+00      -1.08626012e+00 
      -2.59468913e-02       0.00000000e+00      -1.08626012e+00 
      -2.59468913e-02       0.00000000e+00      -1.08626012e+00 
      -2.59468913e-02       0.00000000e+00      -1.08626012e+00 
      -2.68916396e-02       0.00000000e+00      -1.07051122e+00 
      -2.68916396e-02       0.00000000e+00      -1.07051122e+00 
      -2.68916396e-02       0.00000000e+00      -1.07051122e+00 
      -2.68916396e-02       0.00000000e+00      -1.07051122e+00 
      -2.59468913e-02       0.00000000e+00      -1.08626012e+00 
      -2.59468913e-02       0.00000000e+00      -1.08626012e+00 
      -2.59468913e-02       0.00000000e+00      -1.08626012e+00 
      -2.59468913e-02       0.00000000e+00      -1.08626012e+00 
      -2.53684853e-02       0.00000000e+00      -1.09262640e+00 
      -2.53684853e-02       0.00000000e+00      -1.09262640e+00 
      -2.53684853e-02       0.00000000e+00      -1.09262640e+00 
      -2.53684853e-02       0.00000000e+00      -1.09262640e+00 
      -2.59468913e-02       0.00000000e+00      -1.08626012e+00 
      -2.59468913e-02       0.00000000e+00      -1.08626012e+00 
      -2.59468913e-02       0.00000000e+00      -1.08626012e+00 
      -2.59468913e-02       0.00000000e+00      -1.08626012e+00 
      -2.53684853e-02       0.00000000e+00      -1.09262640e+00 
      -2.53684853e-02       0.00000000e+00      -1.09262640e+00 
      -2.53684853e-02       0.00000000e+00      -1.09262640e+00 
      -2.53684853e-02       0.00000000e+00      -1.09262640e+00 
      -2.56576883e-02       0.00000000e+00      -1.08944326e+00 
      -2.56576883e-02       0.00000000e+00      -1.08944326e+00 
      -2.56576883e-02       0.00000000e+00      -1.08944326e+00 
      -2.56576883e-02       0.00000000e+00      -1.08944326e+00 
      -2.53684853e-02       0.00000000e+00      -1.09262640e+00 
      -2.53684853e-02       0.00000000e+00      -1.09262640e+00 
      -2.53684853e-02       0.00000000e+00      -1.09262640e+00 
      -2.53684853e-02       0.00000000e+00      -1.09262640e+00 
      -2.51987612e-02       0.00000000e+00      -1.12225041e+00 
      -2.51987612e-02       0.00000000e+00      -1.12225041e+00 
      -2.51987612e-02       0.00000000e+00      -1.12225041e+00 
      -2.51987612e-02       0.00000000e+00      -1.12225041e+00 
      -2.53684853e-02       0.00000000e+00      -1.09262640e+00 
      -2.53684853e-02       0.00000000e+00      -1.09262640e+00 
      -2.53684853e-02       0.00000000e+00      -1.09262640e+00 
      -2.53684853e-02       0.00000000e+00      -1.09262640e+00 
      -2.51987612e-02       0.00000000e+00      -1.12225041e+00 
      -2.51987612e-02       0.00000000e+00      -1.12225041e+00 
      -2.51987612e-02       0.00000000e+00      -1.12225041e+00 
      -2.51987612e-02       0.00000000e+00      -1.12225041e+00 
      -2.52836232e-02       0.00000000e+00      -1.10743841e+00 
      -2.52836232e-02       0.00000000e+00      -1.10743841e+00 
      -2.52836232e-02       0.00000000e+00      -1.10743841e+00 
      -2.52836232e-02       0.00000000e+00      -1.10743841e+00 
      -2.51987612e-02       0.00000000e+00      -1.12225041e+00 
      -2.51987612e-02       0.00000000e+00      -1.12225041e+00 
      -2.51987612e-02       0.00000000e+00      -1.12225041e+00 
      -2.51987612e-02       0.00000000e+00      -1.12225041e+00 
      -2.53252954e-02       0.00000000e+00      -1.16873419e+00 
      -2.53252954e-02       0.00000000e+00      -1.16873419e+00 
      -2.53252954e-02       0.00000000e+00      -1.16873419e+00 
      -2.53252954e-02       0.00000000e+00      -1.16873419e+00 
      -2.51987612e-02       0.00000000e+00      -1.12225041e+00 
      -2.51987612e-02       0.00000000e+00      -1.12225041e+00 
      -2.51987612e-02       0.00000000e+00      -1.12225041e+00 
      -2.51987612e-02       0.00000000e+00      -1.12225041e+00 
      -2.53252954e-02       0.00000000e+00      -1.16873419e+00 
      -2.53252954e-02       0.00000000e+00      -1.16873419e+00 
      -2.53252954e-02       0.00000000e+00      -1.16873419e+00 
      -2.53252954e-02       0.00000000e+00      -1.16873419e+00 
      -2.52620283e-02       0.00000000e+00      -1.14549230e+00 
      -2.52620283e-02       0.00000000e+00      -1.14549230e+00 
      -2.52620283e-02       0.00000000e+00      -1.14549230e+00 
      -2.52620283e-02       0.00000000e+00      -1.14549230e+00 
      -2.53252954e-02       0.00000000e+00      -1.16873419e+00 
      -2.53252954e-02       0.00000000e+00      -1.16873419e+00 
      -2.53252954e-02       0.00000000e+00      -1.16873419e+00 
      -2.53252954e-02       0.00000000e+00      -1.16873419e+00 
      -2.56356639e-02       0.00000000e+00      -1.22567981e+00 
      -2.56356639e-02       0.00000000e+00      -1.22567981e+00 
      -2.56356639e-02       0.00000000e+00      -1.22567981e+00 
      -2.56356639e-02       0.00000000e+00      -1.22567981e+00 
      -2.53252954e-02       0.00000000e+00      -1.16873419e+00 
      -2.53252954e-02       0.00000000e+00      -1.16873419e+00 
      -2.53252954e-02       0.00000000e+00      -1.16873419e+00 
      -2.53252954e-02       0.00000000e+00      -1.16873419e+00 
      -2.56356639e-02       0.00000000e+00      -1.22567981e+00 
      -2.56356639e-02       0.00000000e+00      -1.22567981e+00 
      -2.56356639e-02       0.00000000e+00      -1.22567981e+00 
      -2.56356639e-02       0.00000000e+00      -1.22567981e+00 
      -2.54804797e-02       0.00000000e+00      -1.19720700e+00 
      -2.54804797e-02       0.00000000e+00      -1.19720700e+00 
      -2.54804797e-02       0.00000000e+00      -1.19720700e+00 
      -2.54804797e-02       0.00000000e+00      -1.19720700e+00 
      -2.56356639e-02       0.00000000e+00      -1.22567981e+00 
      -2.56356639e-02       0.00000000e+00      -1.22567981e+00 
      -2.56356639e-02       0.00000000e+00      -1.22567981e+00 
      -2.56356639e-02       0.00000000e+00      -1.22567981e+00 
      -2.60174428e-02       0.00000000e+00      -1.28668934e+00 
      -2.60174428e-02       0.00000000e+00      -1.28668934e+00 